   8   8   0   0
  0.2045842E+02  0.5470000E-09  0.5470000E-09  0.5470000E-09  0.5000000E-15
  1.000000000000000E-004
  CAR 
 NAPTHA04                                
     19.63181969     -7.16819646  301      6.07547818      1.00000000
     -7.168  0.0000E+00  0.0000E+00
     -7.079  0.0000E+00  0.0000E+00
     -6.990  0.0000E+00  0.0000E+00
     -6.900  0.0000E+00  0.0000E+00
     -6.811  0.0000E+00  0.0000E+00
     -6.722  0.0000E+00  0.0000E+00
     -6.632  0.0000E+00  0.0000E+00
     -6.543  0.0000E+00  0.0000E+00
     -6.454  0.0000E+00  0.0000E+00
     -6.364  0.0000E+00  0.0000E+00
     -6.275  0.0000E+00  0.0000E+00
     -6.186  0.0000E+00  0.0000E+00
     -6.096  0.0000E+00  0.0000E+00
     -6.007  0.6520E-03  0.5825E-04
     -5.918  0.2215E+02  0.1978E+01
     -5.828  0.2420E+00  0.2000E+01
     -5.739  0.0000E+00  0.2000E+01
     -5.650  0.0000E+00  0.2000E+01
     -5.560  0.0000E+00  0.2000E+01
     -5.471  0.0000E+00  0.2000E+01
     -5.382  0.0000E+00  0.2000E+01
     -5.292  0.0000E+00  0.2000E+01
     -5.203  0.0000E+00  0.2000E+01
     -5.114  0.0000E+00  0.2000E+01
     -5.024  0.0000E+00  0.2000E+01
     -4.935  0.0000E+00  0.2000E+01
     -4.846  0.0000E+00  0.2000E+01
     -4.756  0.0000E+00  0.2000E+01
     -4.667  0.0000E+00  0.2000E+01
     -4.578  0.0000E+00  0.2000E+01
     -4.488  0.0000E+00  0.2000E+01
     -4.399  0.0000E+00  0.2000E+01
     -4.310  0.0000E+00  0.2000E+01
     -4.220  0.0000E+00  0.2000E+01
     -4.131  0.0000E+00  0.2000E+01
     -4.042  0.0000E+00  0.2000E+01
     -3.952  0.0000E+00  0.2000E+01
     -3.863  0.0000E+00  0.2000E+01
     -3.774  0.0000E+00  0.2000E+01
     -3.684  0.0000E+00  0.2000E+01
     -3.595  0.0000E+00  0.2000E+01
     -3.506  0.0000E+00  0.2000E+01
     -3.416  0.0000E+00  0.2000E+01
     -3.327  0.0000E+00  0.2000E+01
     -3.238  0.0000E+00  0.2000E+01
     -3.148  0.0000E+00  0.2000E+01
     -3.059  0.0000E+00  0.2000E+01
     -2.970  0.0000E+00  0.2000E+01
     -2.880  0.0000E+00  0.2000E+01
     -2.791  0.0000E+00  0.2000E+01
     -2.702  0.0000E+00  0.2000E+01
     -2.612  0.0000E+00  0.2000E+01
     -2.523  0.0000E+00  0.2000E+01
     -2.434  0.0000E+00  0.2000E+01
     -2.344  0.0000E+00  0.2000E+01
     -2.255  0.0000E+00  0.2000E+01
     -2.166  0.0000E+00  0.2000E+01
     -2.076  0.0000E+00  0.2000E+01
     -1.987  0.3728E-13  0.2000E+01
     -1.898  0.2715E+01  0.2243E+01
     -1.808  0.1316E+03  0.1400E+02
     -1.719  0.1668E-01  0.1400E+02
     -1.630  0.0000E+00  0.1400E+02
     -1.540  0.0000E+00  0.1400E+02
     -1.451  0.0000E+00  0.1400E+02
     -1.362  0.0000E+00  0.1400E+02
     -1.272  0.0000E+00  0.1400E+02
     -1.183  0.0000E+00  0.1400E+02
     -1.094  0.0000E+00  0.1400E+02
     -1.004  0.0000E+00  0.1400E+02
     -0.915  0.0000E+00  0.1400E+02
     -0.826  0.0000E+00  0.1400E+02
     -0.736  0.0000E+00  0.1400E+02
     -0.647  0.0000E+00  0.1400E+02
     -0.558  0.0000E+00  0.1400E+02
     -0.468  0.0000E+00  0.1400E+02
     -0.379  0.0000E+00  0.1400E+02
     -0.290  0.0000E+00  0.1400E+02
     -0.200  0.0000E+00  0.1400E+02
     -0.111  0.0000E+00  0.1400E+02
     -0.022  0.0000E+00  0.1400E+02
      0.068  0.0000E+00  0.1400E+02
      0.157  0.0000E+00  0.1400E+02
      0.246  0.0000E+00  0.1400E+02
      0.336  0.0000E+00  0.1400E+02
      0.425  0.0000E+00  0.1400E+02
      0.514  0.0000E+00  0.1400E+02
      0.604  0.0000E+00  0.1400E+02
      0.693  0.0000E+00  0.1400E+02
      0.782  0.0000E+00  0.1400E+02
      0.872  0.0000E+00  0.1400E+02
      0.961  0.0000E+00  0.1400E+02
      1.050  0.0000E+00  0.1400E+02
      1.140  0.0000E+00  0.1400E+02
      1.229  0.0000E+00  0.1400E+02
      1.318  0.0000E+00  0.1400E+02
      1.408  0.0000E+00  0.1400E+02
      1.497  0.0000E+00  0.1400E+02
      1.586  0.0000E+00  0.1400E+02
      1.676  0.0000E+00  0.1400E+02
      1.765  0.0000E+00  0.1400E+02
      1.854  0.0000E+00  0.1400E+02
      1.944  0.0000E+00  0.1400E+02
      2.033  0.0000E+00  0.1400E+02
      2.122  0.0000E+00  0.1400E+02
      2.212  0.0000E+00  0.1400E+02
      2.301  0.0000E+00  0.1400E+02
      2.390  0.0000E+00  0.1400E+02
      2.480  0.0000E+00  0.1400E+02
      2.569  0.0000E+00  0.1400E+02
      2.658  0.0000E+00  0.1400E+02
      2.748  0.0000E+00  0.1400E+02
      2.837  0.0000E+00  0.1400E+02
      2.926  0.0000E+00  0.1400E+02
      3.016  0.1091E+01  0.1410E+02
      3.105  0.1332E+03  0.2600E+02
      3.194  0.1202E-01  0.2600E+02
      3.284  0.0000E+00  0.2600E+02
      3.373  0.0000E+00  0.2600E+02
      3.462  0.0000E+00  0.2600E+02
      3.552  0.0000E+00  0.2600E+02
      3.641  0.0000E+00  0.2600E+02
      3.730  0.0000E+00  0.2600E+02
      3.820  0.0000E+00  0.2600E+02
      3.909  0.0000E+00  0.2600E+02
      3.998  0.0000E+00  0.2600E+02
      4.088  0.0000E+00  0.2600E+02
      4.177  0.0000E+00  0.2600E+02
      4.266  0.0000E+00  0.2600E+02
      4.356  0.0000E+00  0.2600E+02
      4.445  0.0000E+00  0.2600E+02
      4.534  0.0000E+00  0.2600E+02
      4.624  0.0000E+00  0.2600E+02
      4.713  0.0000E+00  0.2600E+02
      4.802  0.0000E+00  0.2600E+02
      4.892  0.0000E+00  0.2600E+02
      4.981  0.0000E+00  0.2600E+02
      5.070  0.0000E+00  0.2600E+02
      5.160  0.0000E+00  0.2600E+02
      5.249  0.0000E+00  0.2600E+02
      5.338  0.0000E+00  0.2600E+02
      5.428  0.0000E+00  0.2600E+02
      5.517  0.0000E+00  0.2600E+02
      5.606  0.0000E+00  0.2600E+02
      5.696  0.0000E+00  0.2600E+02
      5.785  0.0000E+00  0.2600E+02
      5.874  0.1764E+00  0.2602E+02
      5.964  0.6668E+02  0.3197E+02
      6.053  0.3036E+00  0.3200E+02
      6.142  0.0000E+00  0.3200E+02
      6.232  0.0000E+00  0.3200E+02
      6.321  0.0000E+00  0.3200E+02
      6.410  0.0000E+00  0.3200E+02
      6.500  0.6435E-08  0.3200E+02
      6.589  0.4458E+02  0.3598E+02
      6.678  0.8975E+02  0.4400E+02
      6.768  0.0000E+00  0.4400E+02
      6.857  0.0000E+00  0.4400E+02
      6.946  0.0000E+00  0.4400E+02
      7.036  0.0000E+00  0.4400E+02
      7.125  0.0000E+00  0.4400E+02
      7.214  0.0000E+00  0.4400E+02
      7.304  0.0000E+00  0.4400E+02
      7.393  0.0000E+00  0.4400E+02
      7.482  0.0000E+00  0.4400E+02
      7.572  0.0000E+00  0.4400E+02
      7.661  0.0000E+00  0.4400E+02
      7.750  0.0000E+00  0.4400E+02
      7.840  0.0000E+00  0.4400E+02
      7.929  0.0000E+00  0.4400E+02
      8.018  0.0000E+00  0.4400E+02
      8.108  0.0000E+00  0.4400E+02
      8.197  0.0000E+00  0.4400E+02
      8.286  0.7158E-08  0.4400E+02
      8.376  0.2732E+02  0.4644E+02
      8.465  0.3984E+02  0.5000E+02
      8.554  0.0000E+00  0.5000E+02
      8.644  0.0000E+00  0.5000E+02
      8.733  0.0000E+00  0.5000E+02
      8.822  0.0000E+00  0.5000E+02
      8.912  0.0000E+00  0.5000E+02
      9.001  0.1363E-02  0.5000E+02
      9.090  0.2224E+02  0.5199E+02
      9.180  0.1495E+00  0.5200E+02
      9.269  0.0000E+00  0.5200E+02
      9.358  0.0000E+00  0.5200E+02
      9.448  0.0000E+00  0.5200E+02
      9.537  0.0000E+00  0.5200E+02
      9.626  0.0000E+00  0.5200E+02
      9.716  0.0000E+00  0.5200E+02
      9.805  0.0000E+00  0.5200E+02
      9.894  0.0000E+00  0.5200E+02
      9.984  0.0000E+00  0.5200E+02
     10.073  0.0000E+00  0.5200E+02
     10.162  0.0000E+00  0.5200E+02
     10.252  0.0000E+00  0.5200E+02
     10.341  0.0000E+00  0.5200E+02
     10.430  0.0000E+00  0.5200E+02
     10.520  0.0000E+00  0.5200E+02
     10.609  0.0000E+00  0.5200E+02
     10.698  0.0000E+00  0.5200E+02
     10.788  0.0000E+00  0.5200E+02
     10.877  0.0000E+00  0.5200E+02
     10.966  0.0000E+00  0.5200E+02
     11.056  0.0000E+00  0.5200E+02
     11.145  0.0000E+00  0.5200E+02
     11.234  0.0000E+00  0.5200E+02
     11.324  0.0000E+00  0.5200E+02
     11.413  0.0000E+00  0.5200E+02
     11.502  0.0000E+00  0.5200E+02
     11.592  0.0000E+00  0.5200E+02
     11.681  0.0000E+00  0.5200E+02
     11.770  0.0000E+00  0.5200E+02
     11.860  0.0000E+00  0.5200E+02
     11.949  0.0000E+00  0.5200E+02
     12.038  0.0000E+00  0.5200E+02
     12.128  0.0000E+00  0.5200E+02
     12.217  0.0000E+00  0.5200E+02
     12.306  0.0000E+00  0.5200E+02
     12.396  0.0000E+00  0.5200E+02
     12.485  0.0000E+00  0.5200E+02
     12.574  0.0000E+00  0.5200E+02
     12.664  0.0000E+00  0.5200E+02
     12.753  0.0000E+00  0.5200E+02
     12.842  0.0000E+00  0.5200E+02
     12.932  0.0000E+00  0.5200E+02
     13.021  0.0000E+00  0.5200E+02
     13.110  0.0000E+00  0.5200E+02
     13.200  0.0000E+00  0.5200E+02
     13.289  0.0000E+00  0.5200E+02
     13.378  0.0000E+00  0.5200E+02
     13.468  0.0000E+00  0.5200E+02
     13.557  0.2711E-02  0.5200E+02
     13.646  0.4447E+02  0.5597E+02
     13.736  0.3001E+00  0.5600E+02
     13.825  0.1098E+02  0.5698E+02
     13.914  0.1141E+02  0.5800E+02
     14.004  0.0000E+00  0.5800E+02
     14.093  0.0000E+00  0.5800E+02
     14.182  0.0000E+00  0.5800E+02
     14.272  0.0000E+00  0.5800E+02
     14.361  0.0000E+00  0.5800E+02
     14.450  0.0000E+00  0.5800E+02
     14.540  0.0000E+00  0.5800E+02
     14.629  0.0000E+00  0.5800E+02
     14.718  0.0000E+00  0.5800E+02
     14.808  0.0000E+00  0.5800E+02
     14.897  0.0000E+00  0.5800E+02
     14.986  0.0000E+00  0.5800E+02
     15.076  0.0000E+00  0.5800E+02
     15.165  0.0000E+00  0.5800E+02
     15.254  0.0000E+00  0.5800E+02
     15.344  0.0000E+00  0.5800E+02
     15.433  0.0000E+00  0.5800E+02
     15.522  0.0000E+00  0.5800E+02
     15.612  0.0000E+00  0.5800E+02
     15.701  0.0000E+00  0.5800E+02
     15.790  0.7351E+00  0.5807E+02
     15.880  0.1336E+03  0.7000E+02
     15.969  0.3122E-01  0.7000E+02
     16.058  0.0000E+00  0.7000E+02
     16.148  0.0000E+00  0.7000E+02
     16.237  0.0000E+00  0.7000E+02
     16.326  0.0000E+00  0.7000E+02
     16.416  0.0000E+00  0.7000E+02
     16.505  0.0000E+00  0.7000E+02
     16.594  0.0000E+00  0.7000E+02
     16.684  0.0000E+00  0.7000E+02
     16.773  0.0000E+00  0.7000E+02
     16.862  0.1853E-07  0.7000E+02
     16.952  0.3213E+02  0.7287E+02
     17.041  0.1693E+03  0.8800E+02
     17.130  0.1862E-01  0.8800E+02
     17.220  0.0000E+00  0.8800E+02
     17.309  0.0000E+00  0.8800E+02
     17.398  0.0000E+00  0.8800E+02
     17.488  0.0000E+00  0.8800E+02
     17.577  0.0000E+00  0.8800E+02
     17.666  0.0000E+00  0.8800E+02
     17.756  0.0000E+00  0.8800E+02
     17.845  0.0000E+00  0.8800E+02
     17.934  0.0000E+00  0.8800E+02
     18.024  0.0000E+00  0.8800E+02
     18.113  0.0000E+00  0.8800E+02
     18.202  0.0000E+00  0.8800E+02
     18.292  0.3107E-12  0.8800E+02
     18.381  0.4703E+01  0.8842E+02
     18.470  0.8485E+02  0.9600E+02
     18.560  0.7197E-03  0.9600E+02
     18.649  0.0000E+00  0.9600E+02
     18.738  0.0000E+00  0.9600E+02
     18.828  0.0000E+00  0.9600E+02
     18.917  0.0000E+00  0.9600E+02
     19.006  0.0000E+00  0.9600E+02
     19.096  0.0000E+00  0.9600E+02
     19.185  0.0000E+00  0.9600E+02
     19.274  0.0000E+00  0.9600E+02
     19.364  0.0000E+00  0.9600E+02
     19.453  0.0000E+00  0.9600E+02
     19.542  0.0000E+00  0.9600E+02
     19.632  0.0000E+00  0.9600E+02
