    8    8    1    1
  0.2045842E+02  0.5470000E-09  0.5470000E-09  0.5470000E-09  0.5000000E-15
  1.000000000000000E-004
  CAR 
 NAPTHA04                                
   32    1   48
 
  0.0000000E+00  0.0000000E+00  0.0000000E+00  0.1000000E+01
   1       -5.950014
   2       -1.874913
   3       -1.873131
   4       -1.866786
   5       -1.861019
   6       -1.858579
   7       -1.855167
   8        3.045495
   9        3.047815
  10        3.049585
  11        3.053245
  12        3.053639
  13        3.055078
  14        5.908707
  15        5.927808
  16        5.929782
  17        6.588688
  18        6.589648
  19        6.593868
  20        6.598019
  21        6.601714
  22        6.602585
  23        8.374927
  24        8.376054
  25        8.387601
  26        9.055490
  27       13.611497
  28       13.611526
  29       13.825489
  30       15.821841
  31       15.824903
  32       15.826674
  33       15.828228
  34       15.830613
  35       15.835451
  36       16.949107
  37       16.949537
  38       16.963023
  39       16.976010
  40       16.980898
  41       16.985746
  42       16.987597
  43       16.992581
  44       16.993750
  45       18.399795
  46       18.402780
  47       18.405520
  48       18.413637
