       N       E                     dE             d eps       ncg     rms          rms(c)
DAV:   1    -0.101482579567E+02   -0.10148E+02   -0.79563E+03    96   0.246E+02
DAV:   2    -0.344505443818E+02   -0.24302E+02   -0.24301E+02   144   0.326E+01
DAV:   3    -0.346177382835E+02   -0.16719E+00   -0.16719E+00    96   0.328E+00
DAV:   4    -0.346180927652E+02   -0.35448E-03   -0.35448E-03   192   0.176E-01
DAV:   5    -0.346180927683E+02   -0.30612E-08   -0.30620E-08    96   0.551E-04    0.793E+00
RMM:   6    -0.336164101057E+02    0.10017E+01   -0.31980E-01    96   0.120E+00    0.474E+00
RMM:   7    -0.331917687258E+02    0.42464E+00   -0.73881E-01    96   0.195E+00    0.463E-01
RMM:   8    -0.332237479643E+02   -0.31979E-01   -0.21625E-02    96   0.416E-01    0.750E-02
RMM:   9    -0.332248755439E+02   -0.11276E-02   -0.12596E-03   109   0.981E-02    0.417E-02
RMM:  10    -0.332250613888E+02   -0.18584E-03   -0.24981E-04   104   0.449E-02    0.499E-03
RMM:  11    -0.332250571219E+02    0.42668E-05   -0.35786E-06   117   0.530E-03    0.155E-03
RMM:  12    -0.332250576538E+02   -0.53187E-06   -0.48760E-07   126   0.203E-03    0.573E-04
RMM:  13    -0.332250576054E+02    0.48362E-07   -0.21440E-08   117   0.420E-04    0.188E-04
RMM:  14    -0.332250574604E+02    0.14504E-06   -0.26083E-09    97   0.138E-04    0.440E-05
RMM:  15    -0.332250574694E+02   -0.90248E-08   -0.30649E-10    68   0.586E-05
   1 F= -.33225057E+02 E0= -.33225057E+02  d E =-.626394E-19
 Linear response reoptimize wavefunctions
DAV:   1    -0.332250574617E+02    0.77454E-08   -0.16563E-10   144   0.332E-05
DAV:   2    -0.332250574617E+02    0.45475E-12   -0.53291E-14    96   0.209E-06
 Linear response G [H, r] |phi>, progress :
  Direction:   1
       N       E                     dE             d eps       ncg     rms
RMM:   1    -0.448755515321E+03   -0.44876E+03   -0.24124E+03   245   0.375E+01
RMM:   2    -0.399981880866E+03    0.48774E+02    0.83496E+02   159   0.694E+00
RMM:   3    -0.409798235880E+03   -0.98164E+01    0.75065E+02   199   0.926E-01
RMM:   4    -0.410049948435E+03   -0.25171E+00    0.74830E+02   228   0.443E-01
RMM:   5    -0.409543478274E+03    0.50647E+00    0.75336E+02   253   0.418E-01
RMM:   6    -0.409594404619E+03   -0.50926E-01    0.75285E+02   262   0.416E-01
 Linear response G [H, r] |phi>, progress :
  Direction:   2
       N       E                     dE             d eps       ncg     rms
RMM:   1    -0.466327890760E+03   -0.46633E+03   -0.25881E+03   247   0.374E+01
RMM:   2    -0.403738949512E+03    0.62589E+02    0.12055E+03   160   0.694E+00
RMM:   3    -0.424386467511E+03   -0.20648E+02    0.10130E+03   197   0.908E-01
RMM:   4    -0.429416047511E+03   -0.50296E+01    0.96285E+02   223   0.428E-01
RMM:   5    -0.427532309403E+03    0.18837E+01    0.98169E+02   251   0.406E-01
RMM:   6    -0.427083719203E+03    0.44859E+00    0.98617E+02   260   0.404E-01
 Linear response G [H, r] |phi>, progress :
  Direction:   3
       N       E                     dE             d eps       ncg     rms
RMM:   1    -0.430091182619E+03   -0.43009E+03   -0.22257E+03   241   0.373E+01
RMM:   2    -0.110394438536E+03    0.31970E+03   -0.98912E+02   164   0.654E+00
RMM:   3    -0.150587548329E+03   -0.40193E+02   -0.13780E+03   198   0.895E-01
RMM:   4    -0.153906822520E+03   -0.33193E+01   -0.14110E+03   235   0.418E-01
RMM:   5    -0.146526152603E+03    0.73807E+01   -0.13372E+03   255   0.392E-01
RMM:   6    -0.148033044991E+03   -0.15069E+01   -0.13522E+03   258   0.390E-01
 Linear response to external field (no local field effect), progress :
  Direction:   1
       N       E                     dE             d eps       ncg     rms          rms(c)
RMM:   1    -0.244572681133E+02   -0.24457E+02   -0.14141E+02   222   0.671E+00
RMM:   2    -0.263951917248E+02   -0.19379E+01   -0.11642E-01   160   0.874E-01
RMM:   3    -0.263958825585E+02   -0.69083E-03   -0.28733E-04   169   0.397E-02
RMM:   4    -0.263958845748E+02   -0.20163E-05   -0.12505E-06   172   0.263E-03
RMM:   5    -0.263958845818E+02   -0.70748E-08   -0.11180E-08   168   0.215E-04
 Linear response to external field (no local field effect), progress :
  Direction:   2
       N       E                     dE             d eps       ncg     rms          rms(c)
RMM:   1    -0.244830502549E+02   -0.24483E+02   -0.14166E+02   219   0.665E+00
RMM:   2    -0.263949801176E+02   -0.19119E+01   -0.10901E-01   159   0.845E-01
RMM:   3    -0.263956405036E+02   -0.66039E-03   -0.28032E-04   170   0.390E-02
RMM:   4    -0.263956424772E+02   -0.19736E-05   -0.12377E-06   170   0.259E-03
RMM:   5    -0.263956424842E+02   -0.70823E-08   -0.14286E-08   168   0.209E-04
 Linear response to external field (no local field effect), progress :
  Direction:   3
       N       E                     dE             d eps       ncg     rms          rms(c)
RMM:   1    -0.244580458943E+02   -0.24458E+02   -0.14143E+02   225   0.666E+00
RMM:   2    -0.263874383863E+02   -0.19294E+01   -0.11462E-01   162   0.836E-01
RMM:   3    -0.263881169355E+02   -0.67855E-03   -0.28413E-04   171   0.379E-02
RMM:   4    -0.263881189203E+02   -0.19848E-05   -0.12222E-06   172   0.246E-03
RMM:   5    -0.263881189273E+02   -0.69649E-08   -0.12203E-08   168   0.211E-04
 Linear response to external field, progress :
  Direction:   1
       N       E                     dE             d eps       ncg     rms          rms(c)
RMM:   1    -0.244572681133E+02   -0.24457E+02   -0.14141E+02   222   0.671E+00
RMM:   2    -0.263951917248E+02   -0.19379E+01   -0.11642E-01   160   0.874E-01    0.854E+00
RMM:   3    -0.259506140394E+02    0.44458E+00   -0.27710E-01   171   0.122E+00    0.500E+00
RMM:   4    -0.276907064563E+02   -0.17401E+01   -0.34475E-01   150   0.148E+00    0.855E-01
RMM:   5    -0.281838458656E+02   -0.49314E+00   -0.22391E-02   161   0.390E-01    0.132E-01
RMM:   6    -0.282395246939E+02   -0.55679E-01   -0.71149E-04   167   0.799E-02    0.696E-02
RMM:   7    -0.282786175739E+02   -0.39093E-01   -0.61926E-04   148   0.797E-02    0.543E-03
RMM:   8    -0.282823034771E+02   -0.36859E-02   -0.20775E-05   173   0.111E-02    0.276E-03
RMM:   9    -0.282823415013E+02   -0.38024E-04   -0.74878E-07   167   0.195E-03    0.104E-03
RMM:  10    -0.282826568373E+02   -0.31534E-03   -0.44529E-07   166   0.140E-03    0.144E-04
RMM:  11    -0.282826490014E+02    0.78359E-05   -0.28433E-07   167   0.330E-04    0.393E-05
RMM:  12    -0.282826500567E+02   -0.10553E-05   -0.30387E-07   169   0.296E-04    0.134E-05
RMM:  13    -0.282826502947E+02   -0.23797E-06   -0.30467E-07   167   0.295E-04    0.307E-06
 Linear response to external field, progress :
  Direction:   2
       N       E                     dE             d eps       ncg     rms          rms(c)
RMM:   1    -0.244830502549E+02   -0.24483E+02   -0.14166E+02   219   0.665E+00
RMM:   2    -0.263949801176E+02   -0.19119E+01   -0.10901E-01   159   0.845E-01    0.854E+00
RMM:   3    -0.259504545171E+02    0.44453E+00   -0.28711E-01   167   0.122E+00    0.500E+00
RMM:   4    -0.276918076483E+02   -0.17414E+01   -0.35380E-01   152   0.149E+00    0.854E-01
RMM:   5    -0.281855522766E+02   -0.49374E+00   -0.22745E-02   160   0.392E-01    0.130E-01
RMM:   6    -0.282397501158E+02   -0.54198E-01   -0.69633E-04   166   0.793E-02    0.688E-02
RMM:   7    -0.282783179019E+02   -0.38568E-01   -0.60855E-04   143   0.791E-02    0.540E-03
RMM:   8    -0.282818737331E+02   -0.35558E-02   -0.19658E-05   173   0.109E-02    0.278E-03
RMM:   9    -0.282819227014E+02   -0.48968E-04   -0.32543E-07   168   0.199E-03    0.999E-04
RMM:  10    -0.282822305918E+02   -0.30789E-03   -0.44661E-08   164   0.135E-03    0.137E-04
RMM:  11    -0.282822235123E+02    0.70795E-05    0.12379E-07   166   0.313E-04    0.388E-05
RMM:  12    -0.282822247182E+02   -0.12059E-05    0.12929E-07   167   0.281E-04    0.131E-05
RMM:  13    -0.282822249699E+02   -0.25172E-06    0.13006E-07   169   0.280E-04    0.326E-06
 Linear response to external field, progress :
  Direction:   3
       N       E                     dE             d eps       ncg     rms          rms(c)
RMM:   1    -0.244580458943E+02   -0.24458E+02   -0.14143E+02   225   0.666E+00
RMM:   2    -0.263874383863E+02   -0.19294E+01   -0.11462E-01   162   0.836E-01    0.853E+00
RMM:   3    -0.259448379614E+02    0.44260E+00   -0.28186E-01   168   0.122E+00    0.500E+00
RMM:   4    -0.276898788268E+02   -0.17450E+01   -0.34254E-01   154   0.149E+00    0.849E-01
RMM:   5    -0.281887048436E+02   -0.49883E+00   -0.23535E-02   159   0.397E-01    0.124E-01
RMM:   6    -0.282399718615E+02   -0.51267E-01   -0.76779E-04   167   0.831E-02    0.600E-02
RMM:   7    -0.282730331588E+02   -0.33061E-01   -0.55753E-04   148   0.694E-02    0.509E-03
RMM:   8    -0.282759230878E+02   -0.28899E-02   -0.10936E-05   173   0.792E-03    0.271E-03
RMM:   9    -0.282760742439E+02   -0.15116E-03   -0.58407E-07   168   0.225E-03    0.839E-04
RMM:  10    -0.282762974389E+02   -0.22320E-03   -0.12894E-07   165   0.108E-03    0.970E-05
RMM:  11    -0.282762874350E+02    0.10004E-04   -0.31284E-08   170   0.317E-04    0.380E-05
RMM:  12    -0.282762911246E+02   -0.36896E-05   -0.30428E-08   168   0.304E-04    0.131E-05
RMM:  13    -0.282762887707E+02    0.23538E-05   -0.30292E-08   167   0.304E-04    0.269E-06
