 vasp.5.3.3 18Dez12 (build Jan  9 2014 12:00:49) complex                        
  
 executed on             LinuxIFC date 2014.01.29  10:10:45
 running on   48 total cores
 distrk:  each k-point on   48 cores,    1 groups
 distr:  one band on NCORES_PER_BAND=   1 cores,   48 groups


--------------------------------------------------------------------------------------------------------


 INCAR:
 POTCAR:    PAW Si                                

 ----------------------------------------------------------------------------- 
|                                                                             |
|           W    W    AA    RRRRR   N    N  II  N    N   GGGG   !!!           |
|           W    W   A  A   R    R  NN   N  II  NN   N  G    G  !!!           |
|           W    W  A    A  R    R  N N  N  II  N N  N  G       !!!           |
|           W WW W  AAAAAA  RRRRR   N  N N  II  N  N N  G  GGG   !            |
|           WW  WW  A    A  R   R   N   NN  II  N   NN  G    G                |
|           W    W  A    A  R    R  N    N  II  N    N   GGGG   !!!           |
|                                                                             |
|      For optimal performance we recommend that you set                      |
|        NPAR = 4 - approx SQRT( number of cores)                             |
|      (number of cores/NPAR must be integer)                                 |
|      This setting will greatly improve the performance of VASP for DFT.     |
|      The default NPAR=number of cores might be grossly inefficient          |
|      on modern multi-core architectures or massively parallel machines.     |
|      Do your own testing.                                                   |
|      Unfortunately you need to use the default for hybrid, GW and RPA       |
|      calculations.                                                          |
|                                                                             |
 ----------------------------------------------------------------------------- 

 POTCAR:    PAW Si                                
   VRHFIN =Si: s2p2                                                             
   LEXCH  = 91                                                                  
   EATOM  =   103.3076 eV,    7.5929 Ry                                         
                                                                                
   TITEL  = PAW Si                                                              
   LULTRA =        F    use ultrasoft PP ?                                      
   IUNSCR =        1    unscreen: 0-lin 1-nonlin 2-no                           
   RPACOR =    1.500    partial core radius                                     
   POMASS =   28.085; ZVAL   =    4.000    mass and valenz                      
   RCORE  =    1.900    outmost cutoff radius                                   
   RWIGS  =    2.480; RWIGS  =    1.312    wigner-seitz radius (au A)           
   ENMAX  =  245.435; ENMIN  =  184.076 eV                                      
   ICORE  =        2    local potential                                         
   LCOR   =        T    correct aug charges                                     
   LPAW   =        T    paw PP                                                  
   EAUG   =  322.069                                                            
   DEXC   =    -.001                                                            
   RMAX   =    2.943    core radius for proj-oper                               
   RAUG   =    1.300    factor for augmentation sphere                          
   RDEP   =    1.993    core radius for depl-charge                             
   QCUT   =   -4.247; QGAM   =    8.494    optimization parameters              
                                                                                
   Description                                                                  
     l     E      TYP  RCUT    TYP  RCUT                                        
     0   .000     23  1.900                                                     
     0   .000     23  1.900                                                     
     1   .000     23  1.900                                                     
     1   .000     23  1.900                                                     
     2   .000      7  1.900                                                     
  local pseudopotential read in
  partial core-charges read in
  atomic valenz-charges read in
  non local Contribution for L=           0  read in
    real space projection operators read in
  non local Contribution for L=           0  read in
    real space projection operators read in
  non local Contribution for L=           1  read in
    real space projection operators read in
  non local Contribution for L=           1  read in
    real space projection operators read in
    PAW grid and wavefunctions read in
 
   number of l-projection  operators is LMAX  =           4
   number of lm-projection operators is LMMAX =           8
 
  PAW Si                                :
 energy of atom  1       EATOM= -103.3076
 kinetic energy error for atom=    0.0109 (will be added to EATOM!!)
 
 
 POSCAR: OUTCAR.0020.+1.out 1.0e-02              
  positions in cartesian coordinates
  No initial velocities read in
 exchange correlation table for  LEXCH =        7
   RHO(1)=    0.500       N(1)  =     2000
   RHO(2)=  100.500       N(2)  =     4000

 VTST: version 3.0c, (01/09/14)

 CHAIN: initializing optimizer
 
 OPT: Using VASP Dynamics algorithm
 CHAIN: Read ICHAIN            0
 
 POSCAR: OUTCAR.0020.+1.out 1.0e-02              
  positions in cartesian coordinates
  No initial velocities read in
 


--------------------------------------------------------------------------------------------------------


 ion  position               nearest neighbor table
   1  0.000  1.000  0.999-   8 2.37   2 2.37   6 2.37   4 2.37
   2  0.250  0.249  0.250-   3 2.37   1 2.37   7 2.37   5 2.37
   3  0.499  0.500  0.000-   2 2.37   8 2.37   6 2.37   4 2.37
   4  0.750  0.750  0.250-   5 2.37   3 2.37   7 2.37   1 2.37
   5  0.500  0.000  0.501-   4 2.37   6 2.37   8 2.37   2 2.37
   6  0.750  0.251  0.750-   5 2.37   7 2.37   1 2.37   3 2.37
   7  0.001  0.500  0.500-   8 2.37   6 2.37   2 2.37   4 2.37
   8  0.250  0.750  0.750-   1 2.37   7 2.37   3 2.37   5 2.37
 
  LATTYP: Found a simple cubic cell.
 ALAT       =     5.4700000000
  
  Lattice vectors:
  
 A1 = (   5.4700000000,   0.0000000000,   0.0000000000)
 A2 = (   0.0000000000,   5.4700000000,   0.0000000000)
 A3 = (   0.0000000000,   0.0000000000,   5.4700000000)


Analysis of symmetry for initial positions (statically):
=====================================================================
 Subroutine PRICEL returns:
 Original cell was already a primitive cell.
 

 Routine SETGRP: Setting up the symmetry group for a 
 simple cubic supercell.


 Subroutine GETGRP returns: Found  1 space group operations
 (whereof  1 operations were pure point group operations)
 out of a pool of 48 trial point group operations.


The static configuration has the point symmetry C_1 .


Analysis of symmetry for dynamics (positions and initial velocities):
=====================================================================
 Subroutine PRICEL returns:
 Original cell was already a primitive cell.
 

 Routine SETGRP: Setting up the symmetry group for a 
 simple cubic supercell.


 Subroutine GETGRP returns: Found  1 space group operations
 (whereof  1 operations were pure point group operations)
 out of a pool of 48 trial point group operations.


The dynamic configuration has the point symmetry C_1 .


 irot  :   1
 --------------------------------------------------------------------
 isymop:   1   0   0
           0   1   0
           0   0   1

 gtrans:     0.0000000     0.0000000     0.0000000

 ptrans:     0.0000000     0.0000000     0.0000000
 rotmap:
 (   1->   1)  (   2->   2)  (   3->   3)  (   4->   4)  (   5->   5) 
 (   6->   6)  (   7->   7)  (   8->   8) 
 
 
 KPOINTS: Automatic mesh                          

Automatic generation of k-mesh.
Space group operators:
 irot       det(A)        alpha          n_x          n_y          n_z        tau_x        tau_y        tau_z
    1     1.000000     0.000001     1.000000     0.000000     0.000000     0.000000     0.000000     0.000000
 
 Subroutine IBZKPT returns following result:
 ===========================================
 
 Found      1 irreducible k-points:
 
 Following reciprocal coordinates:
            Coordinates               Weight
  0.000000  0.000000  0.000000      1.000000
 
 Following cartesian coordinates:
            Coordinates               Weight
  0.000000  0.000000  0.000000      1.000000
 
 
 Subroutine IBZKPT_HF returns following result:
 ==============================================
 
 Found      1 k-points in 1st BZ
 the following      1 k-points will be used (e.g. in the exchange kernel)
 Following reciprocal coordinates:   # in IRBZ
  0.000000  0.000000  0.000000       1 t-inv F


--------------------------------------------------------------------------------------------------------




 Dimension of arrays:
   k-points           NKPTS =      1   k-points in BZ     NKDIM =      1   number of bands    NBANDS=     48
   number of dos      NEDOS =    301   number of ions     NIONS =      8
   non local maximal  LDIM  =      4   non local SUM 2l+1 LMDIM =      8
   total plane-waves  NPLWV =  21952
   max r-space proj   IRMAX =      1   max aug-charges    IRDMAX=  36071
   dimension x,y,z NGX =    28 NGY =   28 NGZ =   28
   dimension x,y,z NGXF=    56 NGYF=   56 NGZF=   56
   support grid    NGXF=   112 NGYF=  112 NGZF=  112
   ions per type =               8
 NGX,Y,Z   is equivalent  to a cutoff of   8.51,  8.51,  8.51 a.u.
 NGXF,Y,Z  is equivalent  to a cutoff of  17.02, 17.02, 17.02 a.u.


 I would recommend the setting:
   dimension x,y,z NGX =    19 NGY =   19 NGZ =   19
 SYSTEM =  NAPTHA04                                
 POSCAR =  OUTCAR.0020.+1.out 1.0e-02              

 Startparameter for this run:
   NWRITE =      3    write-flag & timer
   PREC   = normal    normal or accurate (medium, high low for compatibility)
   ISTART =      0    job   : 0-new  1-cont  2-samecut
   ICHARG =      2    charge: 1-file 2-atom 10-const
   ISPIN  =      1    spin polarized calculation?
   LNONCOLLINEAR =      F non collinear calculations
   LSORBIT =      F    spin-orbit coupling
   INIWAV =      1    electr: 0-lowe 1-rand  2-diag
   LASPH  =      F    aspherical Exc in radial PAW
   METAGGA=      F    non-selfconsistent MetaGGA calc.

 Electronic Relaxation 1
   ENCUT  =  200.0 eV  14.70 Ry    3.83 a.u.   6.31  6.31  6.31*2*pi/ulx,y,z
   ENINI  =  200.0     initial cutoff
   ENAUG  =  322.1 eV  augmentation charge cutoff
   NELM   =     60;   NELMIN=  2; NELMDL= -5     # of ELM steps 
   EDIFF  = 0.1E-07   stopping-criterion for ELM
   LREAL  =      F    real-space projection
   NLSPLINE    = F    spline interpolate recip. space projectors
   LCOMPAT=      F    compatible to vasp.4.4
   GGA_COMPAT  = T    GGA compatible to vasp.4.4-vasp.4.6
   LMAXPAW     = -100 max onsite density
   LMAXMIX     =    2 max onsite mixed and CHGCAR
   VOSKOWN=      0    Vosko Wilk Nusair interpolation
   ROPT   =    0.00000
 Ionic relaxation
   EDIFFG = 0.1E-06   stopping-criterion for IOM
   NSW    =      0    number of steps for IOM
   NBLOCK =      1;   KBLOCK =      1    inner block; outer block 
   IBRION =     -1    ionic relax: 0-MD 1-quasi-New 2-CG
   NFREE  =      0    steps in history (QN), initial steepest desc. (CG)
   ISIF   =      2    stress and relaxation
   IWAVPR =     10    prediction:  0-non 1-charg 2-wave 3-comb
   ISYM   =      2    0-nonsym 1-usesym 2-fastsym
   LCORR  =      T    Harris-Foulkes like correction to forces

   POTIM  = 0.5000    time-step for ionic-motion
   TEIN   =    0.0    initial temperature
   TEBEG  =    0.0;   TEEND  =   0.0 temperature during run
   SMASS  =  -3.00    Nose mass-parameter (am)
   estimated Nose-frequenzy (Omega)   =  0.10E-29 period in steps =****** mass=  -0.684E-27a.u.
   SCALEE = 1.0000    scale energy and forces
   NPACO  =    256;   APACO  = 16.0  distance and # of slots for P.C.
   PSTRESS=    0.0 pullay stress

  Mass of Ions in am
   POMASS =  28.09
  Ionic Valenz
   ZVAL   =   4.00
  Atomic Wigner-Seitz radii
   RWIGS  =  -1.00
  virtual crystal weights 
   VCA    =   1.00
   NELECT =      32.0000    total number of electrons
   NUPDOWN=      -1.0000    fix difference up-down

 DOS related values:
   EMIN   =  10.00;   EMAX   =-10.00  energy-range for DOS
   EFERMI =   0.00
   ISMEAR =     0;   SIGMA  =   0.02  broadening in eV -4-tet -1-fermi 0-gaus

 Electronic relaxation 2 (details)
   IALGO  =     68    algorithm
   LDIAG  =      T    sub-space diagonalisation (order eigenvalues)
   LSUBROT=      T    optimize rotation matrix (better conditioning)
   TURBO    =      0    0=normal 1=particle mesh
   IRESTART =      0    0=no restart 2=restart with 2 vectors
   NREBOOT  =      0    no. of reboots
   NMIN     =      0    reboot dimension
   EREF     =   0.00    reference energy to select bands
   IMIX   =      4    mixing-type and parameters
     AMIX     =   0.40;   BMIX     =  1.00
     AMIX_MAG =   1.60;   BMIX_MAG =  1.00
     AMIN     =   0.10
     WC   =   100.;   INIMIX=   1;  MIXPRE=   1;  MAXMIX= -45

 Intra band minimization:
   WEIMIN = 0.0000     energy-eigenvalue tresh-hold
   EBREAK =  0.52E-10  absolut break condition
   DEPER  =   0.30     relativ break condition  

   TIME   =   0.40     timestep for ELM

  volume/ion in A,a.u.               =      20.46       138.06
  Fermi-wavevector in a.u.,A,eV,Ry     =   0.950176  1.795573 12.283814  0.902835
  Thomas-Fermi vector in A             =   2.078528
 
 Write flags
   LWAVE  =      F    write WAVECAR
   LCHARG =      F    write CHGCAR
   LVTOT  =      F    write LOCPOT, total local potential
   LVHAR  =      F    write LOCPOT, Hartree potential only
   LELF   =      F    write electronic localiz. function (ELF)
   LORBIT =      0    0 simple, 1 ext, 2 COOP (PROOUT)


 Dipole corrections
   LMONO  =      F    monopole corrections only (constant potential shift)
   LDIPOL =      F    correct potential (dipole corrections)
   IDIPOL =      0    1-x, 2-y, 3-z, 4-all directions 
   EPSILON=  1.0000000 bulk dielectric constant

 Exchange correlation treatment:
   GGA     =    --    GGA type
   LEXCH   =     7    internal setting for exchange type
   VOSKOWN=      0    Vosko Wilk Nusair interpolation
   LHFCALC =     F    Hartree Fock is set to
   LHFONE  =     F    Hartree Fock one center treatment
   AEXX    =    0.0000 exact exchange contribution

 Linear response parameters
   LEPSILON=     T    determine dielectric tensor
   LRPA    =     F    only Hartree local field effects (RPA)
   LNABLA  =     F    use nabla operator in PAW spheres
   LVEL    =     F    velocity operator in full k-point grid
   LINTERFAST=   F  fast interpolation
   KINTER  =     0    interpolate to denser k-point grid
   CSHIFT  =0.1000    complex shift for real part using Kramers Kronig
   OMEGAMAX=  -1.0    maximum frequency
   DEG_THRESHOLD= 0.2000000E-02 threshold for treating states as degnerate
   RTIME   =    0.100 relaxation time in fs

 Orbital magnetization related:
   ORBITALMAG=     F  switch on orbital magnetization
   LCHIMAG   =     F  perturbation theory with respect to B field
   DQ        =  0.001000  dq finite difference perturbation B field



--------------------------------------------------------------------------------------------------------


 Static calculation
 charge density and potential will be updated during run
 non-spin polarized calculation
 RMM-DIIS sequential band-by-band and
  variant of blocked Davidson during initial phase
 perform sub-space diagonalisation
    before iterative eigenvector-optimisation
 modified Broyden-mixing scheme, WC =      100.0
 initial mixing is a Kerker type mixing with AMIX =  0.4000 and BMIX =      1.0000
 Hartree-type preconditioning will be used
 using additional bands           32
 reciprocal scheme for non local part
 use partial core corrections
 calculate Harris-corrections to forces 
   (improved forces if not selfconsistent)
 use gradient corrections 
 use of overlap-Matrix (Vanderbilt PP)
 Gauss-broadening in eV      SIGMA  =   0.02


--------------------------------------------------------------------------------------------------------


  energy-cutoff  :      200.00
  volume of cell :      163.67
      direct lattice vectors                 reciprocal lattice vectors
     5.470000000  0.000000000  0.000000000     0.182815356  0.000000000  0.000000000
     0.000000000  5.470000000  0.000000000     0.000000000  0.182815356  0.000000000
     0.000000000  0.000000000  5.470000000     0.000000000  0.000000000  0.182815356

  length of vectors
     5.470000000  5.470000000  5.470000000     0.182815356  0.182815356  0.182815356


 
 k-points in units of 2pi/SCALE and weight: Automatic mesh                          
   0.00000000  0.00000000  0.00000000       1.000
 
 k-points in reciprocal lattice and weights: Automatic mesh                          
   0.00000000  0.00000000  0.00000000       1.000
 
 position of ions in fractional coordinates (direct lattice) 
   0.00016429  0.99999729  0.99937208
   0.24999729  0.24937208  0.24960136
   0.49937208  0.49960136  0.00033358
   0.74960136  0.75033358  0.25025842
   0.50033358  0.00025842  0.50060099
   0.75025842  0.25060099  0.74997011
   0.00060099  0.49997011  0.49986899
   0.24997011  0.74986899  0.75002817
 
 position of ions in cartesian coordinates  (Angst):
   0.00089867  5.46998515  5.46656528
   1.36748515  1.36406528  1.36531944
   2.73156528  2.73281944  0.00182467
   4.10031944  4.10432467  1.36891358
   2.73682467  0.00141358  2.73828743
   4.10391358  1.37078743  4.10233649
   0.00328743  2.73483649  2.73428336
   1.36733649  4.10178336  4.10265406
 


--------------------------------------------------------------------------------------------------------


 k-point  1 :   0.0000 0.0000 0.0000  plane waves:    1021

 maximum and minimum number of plane-waves per node :      1021     1021

 maximum number of plane-waves:      1021
 maximum index in each direction: 
   IXMAX=    6   IYMAX=    6   IZMAX=    6
   IXMIN=   -6   IYMIN=   -6   IZMIN=   -6

 NGX is ok and might be reduce to  26
 NGY is ok and might be reduce to  26
 NGZ is ok and might be reduce to  26

 serial   3D FFT for wavefunctions
 parallel 3D FFT for charge:
    minimum data exchange during FFTs selected (reduces bandwidth)


 total amount of memory used by VASP on root node    32224. kBytes
========================================================================

   base      :      30000. kBytes
   nonl-proj :        202. kBytes
   fftplans  :        782. kBytes
   grid      :       1198. kBytes
   one-center:         24. kBytes
   wavefun   :         18. kBytes
 
 Broyden mixing: mesh for mixing (old mesh)
   NGX = 13   NGY = 13   NGZ = 13
  (NGX  = 56   NGY  = 56   NGZ  = 56)
  gives a total of   2197 points

 initial charge density was supplied:
 charge density of overlapping atoms calculated
 number of electron      32.0000000 magnetization 
 keeping initial charge density in first step


--------------------------------------------------------------------------------------------------------


 Maximum index for augmentation-charges         1782 (set IRDMAX)


--------------------------------------------------------------------------------------------------------


 First call to EWALD:  gamma=   0.324
 Maximum number of real-space cells 3x 3x 3
 Maximum number of reciprocal cells 3x 3x 3

 FEWALD executed in parallel
    FEWALD:  cpu time    0.00: real time    0.00


----------------------------------------- Iteration    1(   1)  ---------------------------------------


    POTLOK:  cpu time    0.03: real time    0.03
    SETDIJ:  cpu time    0.02: real time    0.02
     EDDAV:  cpu time    0.41: real time    0.42
       DOS:  cpu time    0.00: real time    0.00
    --------------------------------------------
      LOOP:  cpu time    0.47: real time    0.48

 eigenvalue-minimisations  :    96
 total energy-change (2. order) :-0.1014585E+02  (-0.7956068E+03)
 number of electron      32.0000000 magnetization 
 augmentation part       32.0000000 magnetization 

 Free energy of the ion-electron system (eV)
  ---------------------------------------------------
  alpha Z        PSCENC =        12.68944982
  Ewald energy   TEWEN  =      -907.56814861
  -1/2 Hartree   DENC   =       -45.63574919
  -exchange  EXHF       =         0.00000000
  -V(xc)+E(xc)   XCENC  =       -76.79674343
  PAW double counting   =       265.93453375     -123.69690146
  entropy T*S    EENTRO =        -0.00015698
  eigenvalues    EBANDS =        38.55388355
  atomic energy  EATOM  =       826.37398168
  ---------------------------------------------------
  free energy    TOTEN  =       -10.14585086 eV

  energy without entropy =      -10.14569388  energy(sigma->0) =      -10.14577237


--------------------------------------------------------------------------------------------------------




 average (electrostatic) potential at core
  the test charge radii are     0.9892
  (the norm of the test charge is              1.0000)
       1 -84.3513       2 -84.3531       3 -84.3507       4 -84.3443       5 -84.3511
       6 -84.3516       7 -84.3494       8 -84.3535
 
 
 
 E-fermi :   6.6074     XC(G=0):  -9.5533     alpha+bet :-11.7379


 k-point   1 :       0.0000    0.0000    0.0000
  band No.  band energies     occupation 
      1      -6.5896      2.00000
      2      -2.4146      2.00000
      3      -2.2566      2.00000
      4      -2.1174      2.00000
      5      -2.0270      2.00000
      6      -1.8732      2.00000
      7      -1.6787      2.00000
      8       2.7419      2.00000
      9       2.8497      2.00000
     10       2.9940      2.00000
     11       3.1604      2.00000
     12       3.3455      2.00000
     13       4.0781      2.00000
     14       6.1378      2.00000
     15       6.3640      2.00000
     16       6.5629      1.99838
     17       6.6520      0.00162
     18       6.8102      0.00000
     19       6.9060      0.00000
     20       7.1728      0.00000
     21       7.3827      0.00000
     22       8.0437      0.00000
     23       8.9813      0.00000
     24       9.3753      0.00000
     25      10.4524      0.00000
     26      11.4498      0.00000
     27      13.5063      0.00000
     28      14.7742      0.00000
     29      16.5615      0.00000
     30      16.8893      0.00000
     31      17.3591      0.00000
     32      17.5842      0.00000
     33      17.9283      0.00000
     34      18.1346      0.00000
     35      18.4961      0.00000
     36      18.8741      0.00000
     37      19.3740      0.00000
     38      19.5023      0.00000
     39      19.8650      0.00000
     40      20.2522      0.00000
     41      21.0972      0.00000
     42      21.6883      0.00000
     43      22.1739      0.00000
     44      22.7691      0.00000
     45      23.9034      0.00000
     46      24.4002      0.00000
     47      24.8240      0.00000
     48      25.8397      0.00000


--------------------------------------------------------------------------------------------------------


 soft charge-density along one line, spin component           1
         0         1         2         3         4         5         6         7         8         9
 total charge-density along one line
 
 pseudopotential strength for first ion, spin component:           1
 18.662   0.000   0.000   0.000   0.000   0.000   0.000   0.000
  0.000   0.006   0.000   0.000   0.000   0.000   0.000   0.000
  0.000   0.000   4.216   0.000   0.000  -0.004   0.000   0.000
  0.000   0.000   0.000   4.216   0.000   0.000  -0.004   0.000
  0.000   0.000   0.000   0.000   4.216   0.000   0.000  -0.004
  0.000   0.000  -0.004   0.000   0.000   0.005   0.000   0.000
  0.000   0.000   0.000  -0.004   0.000   0.000   0.005   0.000
  0.000   0.000   0.000   0.000  -0.004   0.000   0.000   0.005
 total augmentation occupancy for first ion, spin component:           1
  2.000   0.000   0.000   0.000   0.000   0.000   0.000   0.000
  0.000   0.000   0.000   0.000   0.000   0.000   0.000   0.000
  0.000   0.000   0.667   0.000   0.000   0.000   0.000   0.000
  0.000   0.000   0.000   0.667   0.000   0.000   0.000   0.000
  0.000   0.000   0.000   0.000   0.667   0.000   0.000   0.000
  0.000   0.000   0.000   0.000   0.000   0.000   0.000   0.000
  0.000   0.000   0.000   0.000   0.000   0.000   0.000   0.000
  0.000   0.000   0.000   0.000   0.000   0.000   0.000   0.000


----------------------------------------- Iteration    1(   2)  ---------------------------------------


     EDDAV:  cpu time    0.98: real time    0.98
       DOS:  cpu time    0.00: real time    0.00
    --------------------------------------------
      LOOP:  cpu time    0.98: real time    0.98

 eigenvalue-minimisations  :   144
 total energy-change (2. order) :-0.2430482E+02  (-0.2430326E+02)
 number of electron      32.0000000 magnetization 
 augmentation part       32.0000000 magnetization 

 Free energy of the ion-electron system (eV)
  ---------------------------------------------------
  alpha Z        PSCENC =        12.68944982
  Ewald energy   TEWEN  =      -907.56814861
  -1/2 Hartree   DENC   =       -45.63574919
  -exchange  EXHF       =         0.00000000
  -V(xc)+E(xc)   XCENC  =       -76.79674343
  PAW double counting   =       265.93453375     -123.69690146
  entropy T*S    EENTRO =         0.00000000
  eigenvalues    EBANDS =        14.24890533
  atomic energy  EATOM  =       826.37398168
  ---------------------------------------------------
  free energy    TOTEN  =       -34.45067210 eV

  energy without entropy =      -34.45067210  energy(sigma->0) =      -34.45067210


--------------------------------------------------------------------------------------------------------




 average (electrostatic) potential at core
  the test charge radii are     0.9892
  (the norm of the test charge is              1.0000)
       1 -84.3513       2 -84.3531       3 -84.3507       4 -84.3443       5 -84.3511
       6 -84.3516       7 -84.3494       8 -84.3535
 
 
 
 E-fermi :   5.2495     XC(G=0):  -9.5533     alpha+bet :-11.7379


 k-point   1 :       0.0000    0.0000    0.0000
  band No.  band energies     occupation 
      1      -6.6371      2.00000
      2      -2.6412      2.00000
      3      -2.6366      2.00000
      4      -2.6312      2.00000
      5      -2.6275      2.00000
      6      -2.6236      2.00000
      7      -2.6148      2.00000
      8       2.3754      2.00000
      9       2.3773      2.00000
     10       2.3804      2.00000
     11       2.3830      2.00000
     12       2.3871      2.00000
     13       2.3930      2.00000
     14       5.0718      2.00000
     15       5.0815      2.00000
     16       5.0870      2.00000
     17       6.1456      0.00000
     18       6.1537      0.00000
     19       6.1557      0.00000
     20       6.1580      0.00000
     21       6.1624      0.00000
     22       6.1644      0.00000
     23       7.8526      0.00000
     24       7.8570      0.00000
     25       7.8620      0.00000
     26       8.1266      0.00000
     27      13.2005      0.00000
     28      13.2618      0.00000
     29      13.2699      0.00000
     30      15.1037      0.00000
     31      15.1291      0.00000
     32      15.1708      0.00000
     33      15.2525      0.00000
     34      15.3128      0.00000
     35      15.6340      0.00000
     36      16.3749      0.00000
     37      16.4193      0.00000
     38      16.4527      0.00000
     39      16.5393      0.00000
     40      16.7187      0.00000
     41      16.7496      0.00000
     42      16.7669      0.00000
     43      16.8668      0.00000
     44      17.2382      0.00000
     45      17.9113      0.00000
     46      17.9578      0.00000
     47      17.9922      0.00000
     48      18.0176      0.00000


--------------------------------------------------------------------------------------------------------


 soft charge-density along one line, spin component           1
         0         1         2         3         4         5         6         7         8         9
 total charge-density along one line
 
 pseudopotential strength for first ion, spin component:           1
 18.662   0.000   0.000   0.000   0.000   0.000   0.000   0.000
  0.000   0.006   0.000   0.000   0.000   0.000   0.000   0.000
  0.000   0.000   4.216   0.000   0.000  -0.004   0.000   0.000
  0.000   0.000   0.000   4.216   0.000   0.000  -0.004   0.000
  0.000   0.000   0.000   0.000   4.216   0.000   0.000  -0.004
  0.000   0.000  -0.004   0.000   0.000   0.005   0.000   0.000
  0.000   0.000   0.000  -0.004   0.000   0.000   0.005   0.000
  0.000   0.000   0.000   0.000  -0.004   0.000   0.000   0.005
 total augmentation occupancy for first ion, spin component:           1
  2.000   0.000   0.000   0.000   0.000   0.000   0.000   0.000
  0.000   0.000   0.000   0.000   0.000   0.000   0.000   0.000
  0.000   0.000   0.667   0.000   0.000   0.000   0.000   0.000
  0.000   0.000   0.000   0.667   0.000   0.000   0.000   0.000
  0.000   0.000   0.000   0.000   0.667   0.000   0.000   0.000
  0.000   0.000   0.000   0.000   0.000   0.000   0.000   0.000
  0.000   0.000   0.000   0.000   0.000   0.000   0.000   0.000
  0.000   0.000   0.000   0.000   0.000   0.000   0.000   0.000


----------------------------------------- Iteration    1(   3)  ---------------------------------------


     EDDAV:  cpu time    0.40: real time    0.41
       DOS:  cpu time    0.00: real time    0.00
    --------------------------------------------
      LOOP:  cpu time    0.41: real time    0.41

 eigenvalue-minimisations  :    96
 total energy-change (2. order) :-0.1671935E+00  (-0.1671935E+00)
 number of electron      32.0000000 magnetization 
 augmentation part       32.0000000 magnetization 

 Free energy of the ion-electron system (eV)
  ---------------------------------------------------
  alpha Z        PSCENC =        12.68944982
  Ewald energy   TEWEN  =      -907.56814861
  -1/2 Hartree   DENC   =       -45.63574919
  -exchange  EXHF       =         0.00000000
  -V(xc)+E(xc)   XCENC  =       -76.79674343
  PAW double counting   =       265.93453375     -123.69690146
  entropy T*S    EENTRO =         0.00000000
  eigenvalues    EBANDS =        14.08171186
  atomic energy  EATOM  =       826.37398168
  ---------------------------------------------------
  free energy    TOTEN  =       -34.61786557 eV

  energy without entropy =      -34.61786557  energy(sigma->0) =      -34.61786557


--------------------------------------------------------------------------------------------------------




 average (electrostatic) potential at core
  the test charge radii are     0.9892
  (the norm of the test charge is              1.0000)
       1 -84.3513       2 -84.3531       3 -84.3507       4 -84.3443       5 -84.3511
       6 -84.3516       7 -84.3494       8 -84.3535
 
 
 
 E-fermi :   5.2228     XC(G=0):  -9.5533     alpha+bet :-11.7379


 k-point   1 :       0.0000    0.0000    0.0000
  band No.  band energies     occupation 
      1      -6.6372      2.00000
      2      -2.6423      2.00000
      3      -2.6392      2.00000
      4      -2.6329      2.00000
      5      -2.6308      2.00000
      6      -2.6256      2.00000
      7      -2.6171      2.00000
      8       2.3722      2.00000
      9       2.3743      2.00000
     10       2.3772      2.00000
     11       2.3783      2.00000
     12       2.3819      2.00000
     13       2.3821      2.00000
     14       5.0620      2.00000
     15       5.0649      2.00000
     16       5.0730      2.00000
     17       6.1421      0.00000
     18       6.1508      0.00000
     19       6.1527      0.00000
     20       6.1548      0.00000
     21       6.1589      0.00000
     22       6.1600      0.00000
     23       7.8460      0.00000
     24       7.8505      0.00000
     25       7.8521      0.00000
     26       8.1178      0.00000
     27      13.1845      0.00000
     28      13.1865      0.00000
     29      13.2691      0.00000
     30      15.0834      0.00000
     31      15.0882      0.00000
     32      15.0935      0.00000
     33      15.1127      0.00000
     34      15.1285      0.00000
     35      15.1789      0.00000
     36      16.3114      0.00000
     37      16.3248      0.00000
     38      16.3440      0.00000
     39      16.3682      0.00000
     40      16.4312      0.00000
     41      16.4926      0.00000
     42      16.7099      0.00000
     43      16.7175      0.00000
     44      16.8185      0.00000
     45      17.8840      0.00000
     46      17.8935      0.00000
     47      17.9210      0.00000
     48      17.9388      0.00000


--------------------------------------------------------------------------------------------------------


 soft charge-density along one line, spin component           1
         0         1         2         3         4         5         6         7         8         9
 total charge-density along one line
 
 pseudopotential strength for first ion, spin component:           1
 18.662   0.000   0.000   0.000   0.000   0.000   0.000   0.000
  0.000   0.006   0.000   0.000   0.000   0.000   0.000   0.000
  0.000   0.000   4.216   0.000   0.000  -0.004   0.000   0.000
  0.000   0.000   0.000   4.216   0.000   0.000  -0.004   0.000
  0.000   0.000   0.000   0.000   4.216   0.000   0.000  -0.004
  0.000   0.000  -0.004   0.000   0.000   0.005   0.000   0.000
  0.000   0.000   0.000  -0.004   0.000   0.000   0.005   0.000
  0.000   0.000   0.000   0.000  -0.004   0.000   0.000   0.005
 total augmentation occupancy for first ion, spin component:           1
  2.000   0.000   0.000   0.000   0.000   0.000   0.000   0.000
  0.000   0.000   0.000   0.000   0.000   0.000   0.000   0.000
  0.000   0.000   0.667   0.000   0.000   0.000   0.000   0.000
  0.000   0.000   0.000   0.667   0.000   0.000   0.000   0.000
  0.000   0.000   0.000   0.000   0.667   0.000   0.000   0.000
  0.000   0.000   0.000   0.000   0.000   0.000   0.000   0.000
  0.000   0.000   0.000   0.000   0.000   0.000   0.000   0.000
  0.000   0.000   0.000   0.000   0.000   0.000   0.000   0.000


----------------------------------------- Iteration    1(   4)  ---------------------------------------


     EDDAV:  cpu time    2.02: real time    2.02
       DOS:  cpu time    0.00: real time    0.00
    --------------------------------------------
      LOOP:  cpu time    2.03: real time    2.03

 eigenvalue-minimisations  :   192
 total energy-change (2. order) :-0.3542119E-03  (-0.3542119E-03)
 number of electron      32.0000000 magnetization 
 augmentation part       32.0000000 magnetization 

 Free energy of the ion-electron system (eV)
  ---------------------------------------------------
  alpha Z        PSCENC =        12.68944982
  Ewald energy   TEWEN  =      -907.56814861
  -1/2 Hartree   DENC   =       -45.63574919
  -exchange  EXHF       =         0.00000000
  -V(xc)+E(xc)   XCENC  =       -76.79674343
  PAW double counting   =       265.93453375     -123.69690146
  entropy T*S    EENTRO =         0.00000000
  eigenvalues    EBANDS =        14.08135765
  atomic energy  EATOM  =       826.37398168
  ---------------------------------------------------
  free energy    TOTEN  =       -34.61821978 eV

  energy without entropy =      -34.61821978  energy(sigma->0) =      -34.61821978


--------------------------------------------------------------------------------------------------------




 average (electrostatic) potential at core
  the test charge radii are     0.9892
  (the norm of the test charge is              1.0000)
       1 -84.3513       2 -84.3531       3 -84.3507       4 -84.3443       5 -84.3511
       6 -84.3516       7 -84.3494       8 -84.3535
 
 
 
 E-fermi :   5.2012     XC(G=0):  -9.5533     alpha+bet :-11.7379


 k-point   1 :       0.0000    0.0000    0.0000
  band No.  band energies     occupation 
      1      -6.6372      2.00000
      2      -2.6423      2.00000
      3      -2.6393      2.00000
      4      -2.6329      2.00000
      5      -2.6308      2.00000
      6      -2.6256      2.00000
      7      -2.6171      2.00000
      8       2.3722      2.00000
      9       2.3743      2.00000
     10       2.3772      2.00000
     11       2.3783      2.00000
     12       2.3819      2.00000
     13       2.3821      2.00000
     14       5.0620      2.00000
     15       5.0649      2.00000
     16       5.0730      2.00000
     17       6.1421      0.00000
     18       6.1508      0.00000
     19       6.1527      0.00000
     20       6.1547      0.00000
     21       6.1589      0.00000
     22       6.1600      0.00000
     23       7.8459      0.00000
     24       7.8505      0.00000
     25       7.8521      0.00000
     26       8.1178      0.00000
     27      13.1837      0.00000
     28      13.1838      0.00000
     29      13.2691      0.00000
     30      15.0779      0.00000
     31      15.0796      0.00000
     32      15.0835      0.00000
     33      15.0853      0.00000
     34      15.0895      0.00000
     35      15.0930      0.00000
     36      16.2978      0.00000
     37      16.3030      0.00000
     38      16.3081      0.00000
     39      16.3127      0.00000
     40      16.3196      0.00000
     41      16.3217      0.00000
     42      16.7004      0.00000
     43      16.7055      0.00000
     44      16.7073      0.00000
     45      17.8747      0.00000
     46      17.8777      0.00000
     47      17.8853      0.00000
     48      17.8940      0.00000


--------------------------------------------------------------------------------------------------------


 soft charge-density along one line, spin component           1
         0         1         2         3         4         5         6         7         8         9
 total charge-density along one line
 
 pseudopotential strength for first ion, spin component:           1
 18.662   0.000   0.000   0.000   0.000   0.000   0.000   0.000
  0.000   0.006   0.000   0.000   0.000   0.000   0.000   0.000
  0.000   0.000   4.216   0.000   0.000  -0.004   0.000   0.000
  0.000   0.000   0.000   4.216   0.000   0.000  -0.004   0.000
  0.000   0.000   0.000   0.000   4.216   0.000   0.000  -0.004
  0.000   0.000  -0.004   0.000   0.000   0.005   0.000   0.000
  0.000   0.000   0.000  -0.004   0.000   0.000   0.005   0.000
  0.000   0.000   0.000   0.000  -0.004   0.000   0.000   0.005
 total augmentation occupancy for first ion, spin component:           1
  2.000   0.000   0.000   0.000   0.000   0.000   0.000   0.000
  0.000   0.000   0.000   0.000   0.000   0.000   0.000   0.000
  0.000   0.000   0.667   0.000   0.000   0.000   0.000   0.000
  0.000   0.000   0.000   0.667   0.000   0.000   0.000   0.000
  0.000   0.000   0.000   0.000   0.667   0.000   0.000   0.000
  0.000   0.000   0.000   0.000   0.000   0.000   0.000   0.000
  0.000   0.000   0.000   0.000   0.000   0.000   0.000   0.000
  0.000   0.000   0.000   0.000   0.000   0.000   0.000   0.000


----------------------------------------- Iteration    1(   5)  ---------------------------------------


     EDDAV:  cpu time    0.38: real time    0.39
       DOS:  cpu time    0.00: real time    0.00
    CHARGE:  cpu time    0.02: real time    0.02
    MIXING:  cpu time    0.00: real time    0.00
    --------------------------------------------
      LOOP:  cpu time    0.42: real time    0.42

 eigenvalue-minimisations  :    96
 total energy-change (2. order) :-0.3046125E-08  (-0.3045691E-08)
 number of electron      31.9999999 magnetization 
 augmentation part       -1.8053302 magnetization 

 Broyden mixing:
  rms(total) = 0.79305E+00    rms(broyden)= 0.79300E+00
  rms(prec ) = 0.15228E+01
  weight for this iteration     100.00

 Free energy of the ion-electron system (eV)
  ---------------------------------------------------
  alpha Z        PSCENC =        12.68944982
  Ewald energy   TEWEN  =      -907.56814861
  -1/2 Hartree   DENC   =       -45.63574919
  -exchange  EXHF       =         0.00000000
  -V(xc)+E(xc)   XCENC  =       -76.79674343
  PAW double counting   =       265.93453375     -123.69690146
  entropy T*S    EENTRO =         0.00000000
  eigenvalues    EBANDS =        14.08135765
  atomic energy  EATOM  =       826.37398168
  ---------------------------------------------------
  free energy    TOTEN  =       -34.61821978 eV

  energy without entropy =      -34.61821978  energy(sigma->0) =      -34.61821978


--------------------------------------------------------------------------------------------------------




 average (electrostatic) potential at core
  the test charge radii are     0.9892
  (the norm of the test charge is              1.0000)
       1 -84.3513       2 -84.3531       3 -84.3507       4 -84.3443       5 -84.3511
       6 -84.3516       7 -84.3494       8 -84.3535
 
 
 
 E-fermi :   5.1953     XC(G=0):  -9.5533     alpha+bet :-11.7379


 k-point   1 :       0.0000    0.0000    0.0000
  band No.  band energies     occupation 
      1      -6.6372      2.00000
      2      -2.6423      2.00000
      3      -2.6393      2.00000
      4      -2.6329      2.00000
      5      -2.6308      2.00000
      6      -2.6256      2.00000
      7      -2.6171      2.00000
      8       2.3722      2.00000
      9       2.3743      2.00000
     10       2.3772      2.00000
     11       2.3783      2.00000
     12       2.3819      2.00000
     13       2.3821      2.00000
     14       5.0620      2.00000
     15       5.0649      2.00000
     16       5.0730      2.00000
     17       6.1421      0.00000
     18       6.1508      0.00000
     19       6.1527      0.00000
     20       6.1547      0.00000
     21       6.1589      0.00000
     22       6.1600      0.00000
     23       7.8459      0.00000
     24       7.8505      0.00000
     25       7.8521      0.00000
     26       8.1178      0.00000
     27      13.1837      0.00000
     28      13.1838      0.00000
     29      13.2691      0.00000
     30      15.0779      0.00000
     31      15.0795      0.00000
     32      15.0835      0.00000
     33      15.0852      0.00000
     34      15.0894      0.00000
     35      15.0930      0.00000
     36      16.2977      0.00000
     37      16.3029      0.00000
     38      16.3077      0.00000
     39      16.3123      0.00000
     40      16.3191      0.00000
     41      16.3214      0.00000
     42      16.7003      0.00000
     43      16.7054      0.00000
     44      16.7071      0.00000
     45      17.8700      0.00000
     46      17.8752      0.00000
     47      17.8796      0.00000
     48      17.8817      0.00000


--------------------------------------------------------------------------------------------------------


 soft charge-density along one line, spin component           1
         0         1         2         3         4         5         6         7         8         9
 total charge-density along one line
 
 pseudopotential strength for first ion, spin component:           1
 18.662   0.000   0.000   0.000   0.000   0.000   0.000   0.000
  0.000   0.006   0.000   0.000   0.000   0.000   0.000   0.000
  0.000   0.000   4.216   0.000   0.000  -0.004   0.000   0.000
  0.000   0.000   0.000   4.216   0.000   0.000  -0.004   0.000
  0.000   0.000   0.000   0.000   4.216   0.000   0.000  -0.004
  0.000   0.000  -0.004   0.000   0.000   0.005   0.000   0.000
  0.000   0.000   0.000  -0.004   0.000   0.000   0.005   0.000
  0.000   0.000   0.000   0.000  -0.004   0.000   0.000   0.005
 total augmentation occupancy for first ion, spin component:           1
  1.380  -1.052   0.001  -0.001   0.002  -0.001   0.001  -0.002
 -1.052   0.919   0.000   0.000  -0.001   0.001   0.000   0.002
  0.001   0.000   1.164   0.001  -0.001  -0.758  -0.002   0.001
 -0.001   0.000   0.001   1.165   0.000  -0.002  -0.758   0.000
  0.002  -0.001  -0.001   0.000   1.165   0.001  -0.001  -0.759
 -0.001   0.001  -0.758  -0.002   0.001   0.570   0.002  -0.001
  0.001   0.000  -0.002  -0.758  -0.001   0.002   0.570   0.001
 -0.002   0.002   0.001   0.000  -0.759  -0.001   0.001   0.570


----------------------------------------- Iteration    1(   6)  ---------------------------------------


    POTLOK:  cpu time    0.02: real time    0.02
    SETDIJ:  cpu time    0.02: real time    0.02
    EDDIAG:  cpu time    0.03: real time    0.03
  RMM-DIIS:  cpu time    0.03: real time    0.03
    ORTHCH:  cpu time    0.01: real time    0.01
       DOS:  cpu time    0.00: real time    0.00
    CHARGE:  cpu time    0.02: real time    0.02
    MIXING:  cpu time    0.00: real time    0.00
    --------------------------------------------
      LOOP:  cpu time    0.14: real time    0.15

 eigenvalue-minimisations  :    96
 total energy-change (2. order) : 0.1001641E+01  (-0.3197609E-01)
 number of electron      31.9999999 magnetization 
 augmentation part       -1.7684042 magnetization 

 Broyden mixing:
  rms(total) = 0.47398E+00    rms(broyden)= 0.47398E+00
  rms(prec ) = 0.91063E+00
  weight for this iteration     100.00

 eigenvalues of (default mixing * dielectric matrix)
  average eigenvalue GAMMA=   2.4573
  2.4573

 Free energy of the ion-electron system (eV)
  ---------------------------------------------------
  alpha Z        PSCENC =        12.68944982
  Ewald energy   TEWEN  =      -907.56814861
  -1/2 Hartree   DENC   =       -54.68205289
  -exchange  EXHF       =         0.00000000
  -V(xc)+E(xc)   XCENC  =       -75.44945743
  PAW double counting   =       286.06013442     -144.35842776
  entropy T*S    EENTRO =         0.00000000
  eigenvalues    EBANDS =        23.31794215
  atomic energy  EATOM  =       826.37398168
  ---------------------------------------------------
  free energy    TOTEN  =       -33.61657862 eV

  energy without entropy =      -33.61657862  energy(sigma->0) =      -33.61657862


--------------------------------------------------------------------------------------------------------




 average (electrostatic) potential at core
  the test charge radii are     0.9892
  (the norm of the test charge is              1.0000)
       1 -83.8332       2 -83.8340       3 -83.8329       4 -83.8297       5 -83.8330
       6 -83.8333       7 -83.8322       8 -83.8343
 
 
 
 E-fermi :   5.5473     XC(G=0):  -9.4504     alpha+bet :-11.7379


 k-point   1 :       0.0000    0.0000    0.0000
  band No.  band energies     occupation 
      1      -6.3787      2.00000
      2      -2.3419      2.00000
      3      -2.3393      2.00000
      4      -2.3335      2.00000
      5      -2.3321      2.00000
      6      -2.3275      2.00000
      7      -2.3202      2.00000
      8       2.6339      2.00000
      9       2.6358      2.00000
     10       2.6383      2.00000
     11       2.6392      2.00000
     12       2.6424      2.00000
     13       2.6427      2.00000
     14       5.3955      2.00000
     15       5.3983      2.00000
     16       5.4062      2.00000
     17       6.2578      0.00000
     18       6.2655      0.00000
     19       6.2671      0.00000
     20       6.2691      0.00000
     21       6.2730      0.00000
     22       6.2734      0.00000
     23       8.0533      0.00000
     24       8.0579      0.00000
     25       8.0595      0.00000
     26       8.4862      0.00000
     27      13.3048      0.00000
     28      13.3568      0.00000
     29      13.3569      0.00000
     30      15.3746      0.00000
     31      15.3759      0.00000
     32      15.3799      0.00000
     33      15.3814      0.00000
     34      15.3852      0.00000
     35      15.3885      0.00000
     36      16.5346      0.00000
     37      16.5394      0.00000
     38      16.5438      0.00000
     39      16.5479      0.00000
     40      16.5541      0.00000
     41      16.5562      0.00000
     42      16.7449      0.00000
     43      16.7500      0.00000
     44      16.7517      0.00000
     45      18.1598      0.00000
     46      18.1640      0.00000
     47      18.1673      0.00000
     48      18.1709      0.00000


--------------------------------------------------------------------------------------------------------


 soft charge-density along one line, spin component           1
         0         1         2         3         4         5         6         7         8         9
 total charge-density along one line
 
 pseudopotential strength for first ion, spin component:           1
 18.635  -0.001   0.000   0.000   0.000   0.000   0.000   0.000
 -0.001   0.006   0.000   0.000   0.000   0.000   0.000   0.000
  0.000   0.000   4.221   0.000   0.000  -0.004   0.000   0.000
  0.000   0.000   0.000   4.221   0.000   0.000  -0.004   0.000
  0.000   0.000   0.000   0.000   4.221   0.000   0.000  -0.004
  0.000   0.000  -0.004   0.000   0.000   0.005   0.000   0.000
  0.000   0.000   0.000  -0.004   0.000   0.000   0.005   0.000
  0.000   0.000   0.000   0.000  -0.004   0.000   0.000   0.005
 total augmentation occupancy for first ion, spin component:           1
  1.351  -1.090   0.001  -0.001   0.002  -0.001   0.001  -0.002
 -1.090   0.997   0.000   0.000   0.000   0.001   0.000   0.002
  0.001   0.000   1.146   0.001   0.000  -0.782  -0.002   0.001
 -0.001   0.000   0.001   1.147   0.001  -0.002  -0.782  -0.001
  0.002   0.000   0.000   0.001   1.147   0.001  -0.001  -0.782
 -0.001   0.001  -0.782  -0.002   0.001   0.608   0.002  -0.002
  0.001   0.000  -0.002  -0.782  -0.001   0.002   0.608   0.001
 -0.002   0.002   0.001  -0.001  -0.782  -0.002   0.001   0.608


----------------------------------------- Iteration    1(   7)  ---------------------------------------


    POTLOK:  cpu time    0.02: real time    0.02
    SETDIJ:  cpu time    0.03: real time    0.03
    EDDIAG:  cpu time    0.02: real time    0.02
  RMM-DIIS:  cpu time    0.03: real time    0.03
    ORTHCH:  cpu time    0.01: real time    0.01
       DOS:  cpu time    0.00: real time    0.00
    CHARGE:  cpu time    0.02: real time    0.02
    MIXING:  cpu time    0.00: real time    0.00
    --------------------------------------------
      LOOP:  cpu time    0.13: real time    0.14

 eigenvalue-minimisations  :    96
 total energy-change (2. order) : 0.4246044E+00  (-0.7386675E-01)
 number of electron      31.9999999 magnetization 
 augmentation part       -1.7214557 magnetization 

 Broyden mixing:
  rms(total) = 0.46274E-01    rms(broyden)= 0.46264E-01
  rms(prec ) = 0.78499E-01
  weight for this iteration     100.00

 eigenvalues of (default mixing * dielectric matrix)
  average eigenvalue GAMMA=   2.5304
  2.5304  2.5304

 Free energy of the ion-electron system (eV)
  ---------------------------------------------------
  alpha Z        PSCENC =        12.68944982
  Ewald energy   TEWEN  =      -907.56814861
  -1/2 Hartree   DENC   =       -70.51187671
  -exchange  EXHF       =         0.00000000
  -V(xc)+E(xc)   XCENC  =       -73.00945372
  PAW double counting   =       313.72221270     -172.73415729
  entropy T*S    EENTRO =         0.00000000
  eigenvalues    EBANDS =        37.84601791
  atomic energy  EATOM  =       826.37398168
  ---------------------------------------------------
  free energy    TOTEN  =       -33.19197422 eV

  energy without entropy =      -33.19197422  energy(sigma->0) =      -33.19197422


--------------------------------------------------------------------------------------------------------




 average (electrostatic) potential at core
  the test charge radii are     0.9892
  (the norm of the test charge is              1.0000)
       1 -83.1454       2 -83.1462       3 -83.1458       4 -83.1445       5 -83.1455
       6 -83.1460       7 -83.1449       8 -83.1465
 
 
 
 E-fermi :   6.0953     XC(G=0):  -9.2018     alpha+bet :-11.7379


 k-point   1 :       0.0000    0.0000    0.0000
  band No.  band energies     occupation 
      1      -5.9621      2.00000
      2      -1.8742      2.00000
      3      -1.8720      2.00000
      4      -1.8667      2.00000
      5      -1.8659      2.00000
      6      -1.8617      2.00000
      7      -1.8556      2.00000
      8       3.0470      2.00000
      9       3.0488      2.00000
     10       3.0509      2.00000
     11       3.0515      2.00000
     12       3.0545      2.00000
     13       3.0549      2.00000
     14       5.9202      2.00000
     15       5.9228      2.00000
     16       5.9306      2.00000
     17       6.5176      0.00000
     18       6.5240      0.00000
     19       6.5253      0.00000
     20       6.5273      0.00000
     21       6.5308      0.00000
     22       6.5309      0.00000
     23       8.3783      0.00000
     24       8.3830      0.00000
     25       8.3847      0.00000
     26       9.0451      0.00000
     27      13.6011      0.00000
     28      13.6204      0.00000
     29      13.6204      0.00000
     30      15.8251      0.00000
     31      15.8262      0.00000
     32      15.8299      0.00000
     33      15.8313      0.00000
     34      15.8348      0.00000
     35      15.8377      0.00000
     36      16.8992      0.00000
     37      16.9046      0.00000
     38      16.9063      0.00000
     39      16.9551      0.00000
     40      16.9594      0.00000
     41      16.9633      0.00000
     42      16.9667      0.00000
     43      16.9728      0.00000
     44      16.9745      0.00000
     45      18.6599      0.00000
     46      18.6612      0.00000
     47      18.6682      0.00000
     48      18.6721      0.00000


--------------------------------------------------------------------------------------------------------


 soft charge-density along one line, spin component           1
         0         1         2         3         4         5         6         7         8         9
 total charge-density along one line
 
 pseudopotential strength for first ion, spin component:           1
 18.596  -0.001   0.000   0.000   0.000   0.000   0.000   0.000
 -0.001   0.006   0.000   0.000   0.000   0.000   0.000   0.000
  0.000   0.000   4.227   0.000   0.000  -0.005   0.000   0.000
  0.000   0.000   0.000   4.227   0.000   0.000  -0.005   0.000
  0.000   0.000   0.000   0.000   4.227   0.000   0.000  -0.005
  0.000   0.000  -0.005   0.000   0.000   0.005   0.000   0.000
  0.000   0.000   0.000  -0.005   0.000   0.000   0.005   0.000
  0.000   0.000   0.000   0.000  -0.005   0.000   0.000   0.005
 total augmentation occupancy for first ion, spin component:           1
  1.315  -1.112   0.001   0.000   0.002  -0.002   0.001  -0.003
 -1.112   1.058   0.000   0.000   0.000   0.001   0.000   0.002
  0.001   0.000   1.122   0.002   0.000  -0.805  -0.002   0.001
  0.000   0.000   0.002   1.122   0.001  -0.002  -0.805  -0.001
  0.002   0.000   0.000   0.001   1.122   0.001  -0.001  -0.805
 -0.002   0.001  -0.805  -0.002   0.001   0.652   0.002  -0.002
  0.001   0.000  -0.002  -0.805  -0.001   0.002   0.651   0.001
 -0.003   0.002   0.001  -0.001  -0.805  -0.002   0.001   0.652


----------------------------------------- Iteration    1(   8)  ---------------------------------------


    POTLOK:  cpu time    0.02: real time    0.02
    SETDIJ:  cpu time    0.02: real time    0.02
    EDDIAG:  cpu time    0.02: real time    0.02
  RMM-DIIS:  cpu time    0.03: real time    0.03
    ORTHCH:  cpu time    0.01: real time    0.01
       DOS:  cpu time    0.00: real time    0.00
    CHARGE:  cpu time    0.02: real time    0.02
    MIXING:  cpu time    0.00: real time    0.00
    --------------------------------------------
      LOOP:  cpu time    0.13: real time    0.13

 eigenvalue-minimisations  :    96
 total energy-change (2. order) :-0.3197038E-01  (-0.2162496E-02)
 number of electron      31.9999999 magnetization 
 augmentation part       -1.7275524 magnetization 

 Broyden mixing:
  rms(total) = 0.75174E-02    rms(broyden)= 0.75169E-02
  rms(prec ) = 0.18010E-01
  weight for this iteration     100.00

 eigenvalues of (default mixing * dielectric matrix)
  average eigenvalue GAMMA=   2.1168
  1.2615  2.8594  2.2294

 Free energy of the ion-electron system (eV)
  ---------------------------------------------------
  alpha Z        PSCENC =        12.68944982
  Ewald energy   TEWEN  =      -907.56814861
  -1/2 Hartree   DENC   =       -70.39546166
  -exchange  EXHF       =         0.00000000
  -V(xc)+E(xc)   XCENC  =       -72.96602966
  PAW double counting   =       307.35623144     -166.18325635
  entropy T*S    EENTRO =         0.00000000
  eigenvalues    EBANDS =        37.46928874
  atomic energy  EATOM  =       826.37398168
  ---------------------------------------------------
  free energy    TOTEN  =       -33.22394460 eV

  energy without entropy =      -33.22394460  energy(sigma->0) =      -33.22394460


--------------------------------------------------------------------------------------------------------




 average (electrostatic) potential at core
  the test charge radii are     0.9892
  (the norm of the test charge is              1.0000)
       1 -83.2491       2 -83.2504       3 -83.2488       4 -83.2443       5 -83.2489
       6 -83.2494       7 -83.2476       8 -83.2509
 
 
 
 E-fermi :   6.0342     XC(G=0):  -9.1505     alpha+bet :-11.7379


 k-point   1 :       0.0000    0.0000    0.0000
  band No.  band energies     occupation 
      1      -5.9632      2.00000
      2      -1.8866      2.00000
      3      -1.8842      2.00000
      4      -1.8786      2.00000
      5      -1.8774      2.00000
      6      -1.8729      2.00000
      7      -1.8661      2.00000
      8       3.0351      2.00000
      9       3.0371      2.00000
     10       3.0394      2.00000
     11       3.0400      2.00000
     12       3.0433      2.00000
     13       3.0436      2.00000
     14       5.9040      2.00000
     15       5.9067      2.00000
     16       5.9145      2.00000
     17       6.5680      0.00000
     18       6.5748      0.00000
     19       6.5762      0.00000
     20       6.5781      0.00000
     21       6.5818      0.00000
     22       6.5822      0.00000
     23       8.3676      0.00000
     24       8.3723      0.00000
     25       8.3739      0.00000
     26       9.0380      0.00000
     27      13.6064      0.00000
     28      13.6064      0.00000
     29      13.7782      0.00000
     30      15.8103      0.00000
     31      15.8116      0.00000
     32      15.8149      0.00000
     33      15.8166      0.00000
     34      15.8203      0.00000
     35      15.8232      0.00000
     36      16.9360      0.00000
     37      16.9413      0.00000
     38      16.9431      0.00000
     39      16.9611      0.00000
     40      16.9656      0.00000
     41      16.9696      0.00000
     42      16.9731      0.00000
     43      16.9798      0.00000
     44      16.9816      0.00000
     45      18.6961      0.00000
     46      18.6991      0.00000
     47      18.7066      0.00000
     48      18.7100      0.00000


--------------------------------------------------------------------------------------------------------


 soft charge-density along one line, spin component           1
         0         1         2         3         4         5         6         7         8         9
 total charge-density along one line
 
 pseudopotential strength for first ion, spin component:           1
 18.599  -0.001   0.000   0.000   0.000   0.000   0.000   0.000
 -0.001   0.006   0.000   0.000   0.000   0.000   0.000   0.000
  0.000   0.000   4.224   0.000   0.000  -0.005   0.000   0.000
  0.000   0.000   0.000   4.224   0.000   0.000  -0.005   0.000
  0.000   0.000   0.000   0.000   4.224   0.000   0.000  -0.005
  0.000   0.000  -0.005   0.000   0.000   0.005   0.000   0.000
  0.000   0.000   0.000  -0.005   0.000   0.000   0.005   0.000
  0.000   0.000   0.000   0.000  -0.005   0.000   0.000   0.005
 total augmentation occupancy for first ion, spin component:           1
  1.320  -1.092   0.001   0.000   0.002  -0.001   0.001  -0.002
 -1.092   1.021   0.000   0.000   0.000   0.001   0.000   0.002
  0.001   0.000   1.123   0.002   0.000  -0.801  -0.002   0.001
  0.000   0.000   0.002   1.123   0.001  -0.002  -0.801  -0.001
  0.002   0.000   0.000   0.001   1.123   0.001  -0.001  -0.801
 -0.001   0.001  -0.801  -0.002   0.001   0.647   0.002  -0.001
  0.001   0.000  -0.002  -0.801  -0.001   0.002   0.647   0.001
 -0.002   0.002   0.001  -0.001  -0.801  -0.001   0.001   0.647


----------------------------------------- Iteration    1(   9)  ---------------------------------------


    POTLOK:  cpu time    0.02: real time    0.02
    SETDIJ:  cpu time    0.02: real time    0.02
    EDDIAG:  cpu time    0.02: real time    0.02
  RMM-DIIS:  cpu time    0.06: real time    0.06
    ORTHCH:  cpu time    0.01: real time    0.01
       DOS:  cpu time    0.00: real time    0.00
    CHARGE:  cpu time    0.02: real time    0.02
    MIXING:  cpu time    0.00: real time    0.00
    --------------------------------------------
      LOOP:  cpu time    0.15: real time    0.16

 eigenvalue-minimisations  :   108
 total energy-change (2. order) :-0.1123664E-02  (-0.1254161E-03)
 number of electron      31.9999999 magnetization 
 augmentation part       -1.7274662 magnetization 

 Broyden mixing:
  rms(total) = 0.41714E-02    rms(broyden)= 0.41713E-02
  rms(prec ) = 0.68562E-02
  weight for this iteration     100.00

 eigenvalues of (default mixing * dielectric matrix)
  average eigenvalue GAMMA=   2.3019
  0.9879  3.2480  2.6827  2.2889

 Free energy of the ion-electron system (eV)
  ---------------------------------------------------
  alpha Z        PSCENC =        12.68944982
  Ewald energy   TEWEN  =      -907.56814861
  -1/2 Hartree   DENC   =       -70.79152495
  -exchange  EXHF       =         0.00000000
  -V(xc)+E(xc)   XCENC  =       -72.90693501
  PAW double counting   =       307.71236292     -166.54994234
  entropy T*S    EENTRO =         0.00000000
  eigenvalues    EBANDS =        37.81568824
  atomic energy  EATOM  =       826.37398168
  ---------------------------------------------------
  free energy    TOTEN  =       -33.22506826 eV

  energy without entropy =      -33.22506826  energy(sigma->0) =      -33.22506826


--------------------------------------------------------------------------------------------------------




 average (electrostatic) potential at core
  the test charge radii are     0.9892
  (the norm of the test charge is              1.0000)
       1 -83.2348       2 -83.2357       3 -83.2344       4 -83.2307       5 -83.2346
       6 -83.2349       7 -83.2336       8 -83.2361
 
 
 
 E-fermi :   6.0488     XC(G=0):  -9.1364     alpha+bet :-11.7379


 k-point   1 :       0.0000    0.0000    0.0000
  band No.  band energies     occupation 
      1      -5.9520      2.00000
      2      -1.8752      2.00000
      3      -1.8728      2.00000
      4      -1.8673      2.00000
      5      -1.8663      2.00000
      6      -1.8620      2.00000
      7      -1.8553      2.00000
      8       3.0450      2.00000
      9       3.0470      2.00000
     10       3.0492      2.00000
     11       3.0498      2.00000
     12       3.0530      2.00000
     13       3.0533      2.00000
     14       5.9161      2.00000
     15       5.9188      2.00000
     16       5.9266      2.00000
     17       6.5819      0.00000
     18       6.5888      0.00000
     19       6.5902      0.00000
     20       6.5921      0.00000
     21       6.5958      0.00000
     22       6.5963      0.00000
     23       8.3753      0.00000
     24       8.3800      0.00000
     25       8.3816      0.00000
     26       9.0525      0.00000
     27      13.6116      0.00000
     28      13.6116      0.00000
     29      13.8102      0.00000
     30      15.8209      0.00000
     31      15.8221      0.00000
     32      15.8255      0.00000
     33      15.8271      0.00000
     34      15.8307      0.00000
     35      15.8336      0.00000
     36      16.9460      0.00000
     37      16.9513      0.00000
     38      16.9531      0.00000
     39      16.9733      0.00000
     40      16.9777      0.00000
     41      16.9816      0.00000
     42      16.9852      0.00000
     43      16.9917      0.00000
     44      16.9936      0.00000
     45      18.7139      0.00000
     46      18.7170      0.00000
     47      18.7252      0.00000
     48      18.7283      0.00000


--------------------------------------------------------------------------------------------------------


 soft charge-density along one line, spin component           1
         0         1         2         3         4         5         6         7         8         9
 total charge-density along one line
 
 pseudopotential strength for first ion, spin component:           1
 18.598  -0.001   0.000   0.000   0.000   0.000   0.000   0.000
 -0.001   0.006   0.000   0.000   0.000   0.000   0.000   0.000
  0.000   0.000   4.224   0.000   0.000  -0.005   0.000   0.000
  0.000   0.000   0.000   4.224   0.000   0.000  -0.005   0.000
  0.000   0.000   0.000   0.000   4.224   0.000   0.000  -0.005
  0.000   0.000  -0.005   0.000   0.000   0.005   0.000   0.000
  0.000   0.000   0.000  -0.005   0.000   0.000   0.005   0.000
  0.000   0.000   0.000   0.000  -0.005   0.000   0.000   0.005
 total augmentation occupancy for first ion, spin component:           1
  1.320  -1.087   0.001   0.000   0.002  -0.001   0.001  -0.002
 -1.087   1.012   0.000   0.000   0.000   0.001   0.000   0.002
  0.001   0.000   1.123   0.002   0.000  -0.800  -0.002   0.001
  0.000   0.000   0.002   1.123   0.001  -0.002  -0.801  -0.001
  0.002   0.000   0.000   0.001   1.123   0.001  -0.001  -0.801
 -0.001   0.001  -0.800  -0.002   0.001   0.647   0.002  -0.001
  0.001   0.000  -0.002  -0.801  -0.001   0.002   0.647   0.001
 -0.002   0.002   0.001  -0.001  -0.801  -0.001   0.001   0.647


----------------------------------------- Iteration    1(  10)  ---------------------------------------


    POTLOK:  cpu time    0.02: real time    0.02
    SETDIJ:  cpu time    0.02: real time    0.02
    EDDIAG:  cpu time    0.02: real time    0.02
  RMM-DIIS:  cpu time    0.03: real time    0.03
    ORTHCH:  cpu time    0.01: real time    0.01
       DOS:  cpu time    0.00: real time    0.00
    CHARGE:  cpu time    0.02: real time    0.02
    MIXING:  cpu time    0.00: real time    0.00
    --------------------------------------------
      LOOP:  cpu time    0.13: real time    0.13

 eigenvalue-minimisations  :   104
 total energy-change (2. order) :-0.1882972E-03  (-0.2479462E-04)
 number of electron      31.9999999 magnetization 
 augmentation part       -1.7273390 magnetization 

 Broyden mixing:
  rms(total) = 0.47488E-03    rms(broyden)= 0.47446E-03
  rms(prec ) = 0.94014E-03
  weight for this iteration     100.00

 eigenvalues of (default mixing * dielectric matrix)
  average eigenvalue GAMMA=   2.0311
  3.0864  2.6161  2.1699  0.9799  1.3034

 Free energy of the ion-electron system (eV)
  ---------------------------------------------------
  alpha Z        PSCENC =        12.68944982
  Ewald energy   TEWEN  =      -907.56814861
  -1/2 Hartree   DENC   =       -70.84580336
  -exchange  EXHF       =         0.00000000
  -V(xc)+E(xc)   XCENC  =       -72.90972863
  PAW double counting   =       307.80216881     -166.64601497
  entropy T*S    EENTRO =         0.00000000
  eigenvalues    EBANDS =        37.87883869
  atomic energy  EATOM  =       826.37398168
  ---------------------------------------------------
  free energy    TOTEN  =       -33.22525656 eV

  energy without entropy =      -33.22525656  energy(sigma->0) =      -33.22525656


--------------------------------------------------------------------------------------------------------




 average (electrostatic) potential at core
  the test charge radii are     0.9892
  (the norm of the test charge is              1.0000)
       1 -83.2259       2 -83.2267       3 -83.2257       4 -83.2229       5 -83.2258
       6 -83.2260       7 -83.2251       8 -83.2270
 
 
 
 E-fermi :   6.0535     XC(G=0):  -9.1307     alpha+bet :-11.7379


 k-point   1 :       0.0000    0.0000    0.0000
  band No.  band energies     occupation 
      1      -5.9495      2.00000
      2      -1.8729      2.00000
      3      -1.8706      2.00000
      4      -1.8652      2.00000
      5      -1.8642      2.00000
      6      -1.8600      2.00000
      7      -1.8535      2.00000
      8       3.0468      2.00000
      9       3.0487      2.00000
     10       3.0509      2.00000
     11       3.0515      2.00000
     12       3.0546      2.00000
     13       3.0550      2.00000
     14       5.9182      2.00000
     15       5.9210      2.00000
     16       5.9287      2.00000
     17       6.5873      0.00000
     18       6.5941      0.00000
     19       6.5956      0.00000
     20       6.5975      0.00000
     21       6.6012      0.00000
     22       6.6017      0.00000
     23       8.3762      0.00000
     24       8.3809      0.00000
     25       8.3826      0.00000
     26       9.0562      0.00000
     27      13.6116      0.00000
     28      13.6117      0.00000
     29      13.8263      0.00000
     30      15.8227      0.00000
     31      15.8239      0.00000
     32      15.8275      0.00000
     33      15.8290      0.00000
     34      15.8325      0.00000
     35      15.8355      0.00000
     36      16.9500      0.00000
     37      16.9553      0.00000
     38      16.9572      0.00000
     39      16.9762      0.00000
     40      16.9805      0.00000
     41      16.9843      0.00000
     42      16.9879      0.00000
     43      16.9944      0.00000
     44      16.9962      0.00000
     45      18.7215      0.00000
     46      18.7243      0.00000
     47      18.7320      0.00000
     48      18.7354      0.00000


--------------------------------------------------------------------------------------------------------


 soft charge-density along one line, spin component           1
         0         1         2         3         4         5         6         7         8         9
 total charge-density along one line
 
 pseudopotential strength for first ion, spin component:           1
 18.597  -0.001   0.000   0.000   0.000   0.000   0.000   0.000
 -0.001   0.006   0.000   0.000   0.000   0.000   0.000   0.000
  0.000   0.000   4.224   0.000   0.000  -0.005   0.000   0.000
  0.000   0.000   0.000   4.224   0.000   0.000  -0.005   0.000
  0.000   0.000   0.000   0.000   4.224   0.000   0.000  -0.005
  0.000   0.000  -0.005   0.000   0.000   0.005   0.000   0.000
  0.000   0.000   0.000  -0.005   0.000   0.000   0.005   0.000
  0.000   0.000   0.000   0.000  -0.005   0.000   0.000   0.005
 total augmentation occupancy for first ion, spin component:           1
  1.320  -1.087   0.001   0.000   0.002  -0.001   0.001  -0.002
 -1.087   1.013   0.000   0.000   0.000   0.001   0.000   0.002
  0.001   0.000   1.122   0.002   0.000  -0.801  -0.002   0.001
  0.000   0.000   0.002   1.123   0.001  -0.002  -0.801  -0.001
  0.002   0.000   0.000   0.001   1.123   0.001  -0.001  -0.801
 -0.001   0.001  -0.801  -0.002   0.001   0.648   0.002  -0.001
  0.001   0.000  -0.002  -0.801  -0.001   0.002   0.648   0.001
 -0.002   0.002   0.001  -0.001  -0.801  -0.001   0.001   0.648


----------------------------------------- Iteration    1(  11)  ---------------------------------------


    POTLOK:  cpu time    0.02: real time    0.02
    SETDIJ:  cpu time    0.02: real time    0.02
    EDDIAG:  cpu time    0.02: real time    0.02
  RMM-DIIS:  cpu time    0.05: real time    0.05
    ORTHCH:  cpu time    0.01: real time    0.01
       DOS:  cpu time    0.00: real time    0.00
    CHARGE:  cpu time    0.02: real time    0.02
    MIXING:  cpu time    0.00: real time    0.00
    --------------------------------------------
      LOOP:  cpu time    0.14: real time    0.15

 eigenvalue-minimisations  :   116
 total energy-change (2. order) : 0.4315020E-05  (-0.3301771E-06)
 number of electron      31.9999999 magnetization 
 augmentation part       -1.7274389 magnetization 

 Broyden mixing:
  rms(total) = 0.15475E-03    rms(broyden)= 0.15470E-03
  rms(prec ) = 0.29554E-03
  weight for this iteration     100.00

 eigenvalues of (default mixing * dielectric matrix)
  average eigenvalue GAMMA=   1.9890
  3.2052  2.6994  2.0975  1.9749  0.9785  0.9785

 Free energy of the ion-electron system (eV)
  ---------------------------------------------------
  alpha Z        PSCENC =        12.68944982
  Ewald energy   TEWEN  =      -907.56814861
  -1/2 Hartree   DENC   =       -70.82609067
  -exchange  EXHF       =         0.00000000
  -V(xc)+E(xc)   XCENC  =       -72.91107704
  PAW double counting   =       307.73308833     -166.57423842
  entropy T*S    EENTRO =         0.00000000
  eigenvalues    EBANDS =        37.85778267
  atomic energy  EATOM  =       826.37398168
  ---------------------------------------------------
  free energy    TOTEN  =       -33.22525225 eV

  energy without entropy =      -33.22525225  energy(sigma->0) =      -33.22525225


--------------------------------------------------------------------------------------------------------




 average (electrostatic) potential at core
  the test charge radii are     0.9892
  (the norm of the test charge is              1.0000)
       1 -83.2282       2 -83.2291       3 -83.2278       4 -83.2245       5 -83.2280
       6 -83.2283       7 -83.2272       8 -83.2294
 
 
 
 E-fermi :   6.0533     XC(G=0):  -9.1314     alpha+bet :-11.7379


 k-point   1 :       0.0000    0.0000    0.0000
  band No.  band energies     occupation 
      1      -5.9502      2.00000
      2      -1.8737      2.00000
      3      -1.8714      2.00000
      4      -1.8659      2.00000
      5      -1.8649      2.00000
      6      -1.8606      2.00000
      7      -1.8540      2.00000
      8       3.0462      2.00000
      9       3.0481      2.00000
     10       3.0503      2.00000
     11       3.0509      2.00000
     12       3.0541      2.00000
     13       3.0544      2.00000
     14       5.9175      2.00000
     15       5.9202      2.00000
     16       5.9280      2.00000
     17       6.5866      0.00000
     18       6.5934      0.00000
     19       6.5949      0.00000
     20       6.5968      0.00000
     21       6.6005      0.00000
     22       6.6009      0.00000
     23       8.3758      0.00000
     24       8.3805      0.00000
     25       8.3821      0.00000
     26       9.0552      0.00000
     27      13.6114      0.00000
     28      13.6114      0.00000
     29      13.8247      0.00000
     30      15.8220      0.00000
     31      15.8232      0.00000
     32      15.8267      0.00000
     33      15.8283      0.00000
     34      15.8319      0.00000
     35      15.8348      0.00000
     36      16.9495      0.00000
     37      16.9549      0.00000
     38      16.9567      0.00000
     39      16.9755      0.00000
     40      16.9798      0.00000
     41      16.9837      0.00000
     42      16.9873      0.00000
     43      16.9938      0.00000
     44      16.9956      0.00000
     45      18.7230      0.00000
     46      18.7248      0.00000
     47      18.7315      0.00000
     48      18.7357      0.00000


--------------------------------------------------------------------------------------------------------


 soft charge-density along one line, spin component           1
         0         1         2         3         4         5         6         7         8         9
 total charge-density along one line
 
 pseudopotential strength for first ion, spin component:           1
 18.597  -0.001   0.000   0.000   0.000   0.000   0.000   0.000
 -0.001   0.006   0.000   0.000   0.000   0.000   0.000   0.000
  0.000   0.000   4.224   0.000   0.000  -0.005   0.000   0.000
  0.000   0.000   0.000   4.224   0.000   0.000  -0.005   0.000
  0.000   0.000   0.000   0.000   4.224   0.000   0.000  -0.005
  0.000   0.000  -0.005   0.000   0.000   0.005   0.000   0.000
  0.000   0.000   0.000  -0.005   0.000   0.000   0.005   0.000
  0.000   0.000   0.000   0.000  -0.005   0.000   0.000   0.005
 total augmentation occupancy for first ion, spin component:           1
  1.320  -1.087   0.001   0.000   0.002  -0.001   0.001  -0.002
 -1.087   1.012   0.000   0.000   0.000   0.001   0.000   0.002
  0.001   0.000   1.122   0.002   0.000  -0.801  -0.002   0.001
  0.000   0.000   0.002   1.123   0.001  -0.002  -0.801  -0.001
  0.002   0.000   0.000   0.001   1.123   0.001  -0.001  -0.801
 -0.001   0.001  -0.801  -0.002   0.001   0.648   0.002  -0.001
  0.001   0.000  -0.002  -0.801  -0.001   0.002   0.648   0.001
 -0.002   0.002   0.001  -0.001  -0.801  -0.001   0.001   0.648


----------------------------------------- Iteration    1(  12)  ---------------------------------------


    POTLOK:  cpu time    0.02: real time    0.02
    SETDIJ:  cpu time    0.02: real time    0.02
    EDDIAG:  cpu time    0.02: real time    0.02
  RMM-DIIS:  cpu time    0.04: real time    0.04
    ORTHCH:  cpu time    0.01: real time    0.01
       DOS:  cpu time    0.00: real time    0.00
    CHARGE:  cpu time    0.02: real time    0.02
    MIXING:  cpu time    0.00: real time    0.00
    --------------------------------------------
      LOOP:  cpu time    0.14: real time    0.14

 eigenvalue-minimisations  :   127
 total energy-change (2. order) :-0.4981330E-06  (-0.4723745E-07)
 number of electron      31.9999999 magnetization 
 augmentation part       -1.7274297 magnetization 

 Broyden mixing:
  rms(total) = 0.55571E-04    rms(broyden)= 0.55540E-04
  rms(prec ) = 0.82256E-04
  weight for this iteration     100.00

 eigenvalues of (default mixing * dielectric matrix)
  average eigenvalue GAMMA=   1.9920
  3.2027  2.7311  2.4483  2.0449  1.5587  0.9981  0.9599

 Free energy of the ion-electron system (eV)
  ---------------------------------------------------
  alpha Z        PSCENC =        12.68944982
  Ewald energy   TEWEN  =      -907.56814861
  -1/2 Hartree   DENC   =       -70.82985653
  -exchange  EXHF       =         0.00000000
  -V(xc)+E(xc)   XCENC  =       -72.91104206
  PAW double counting   =       307.73828957     -166.57954252
  entropy T*S    EENTRO =         0.00000000
  eigenvalues    EBANDS =        37.86161592
  atomic energy  EATOM  =       826.37398168
  ---------------------------------------------------
  free energy    TOTEN  =       -33.22525274 eV

  energy without entropy =      -33.22525274  energy(sigma->0) =      -33.22525274


--------------------------------------------------------------------------------------------------------




 average (electrostatic) potential at core
  the test charge radii are     0.9892
  (the norm of the test charge is              1.0000)
       1 -83.2278       2 -83.2287       3 -83.2274       4 -83.2240       5 -83.2276
       6 -83.2279       7 -83.2267       8 -83.2290
 
 
 
 E-fermi :   6.0541     XC(G=0):  -9.1312     alpha+bet :-11.7379


 k-point   1 :       0.0000    0.0000    0.0000
  band No.  band energies     occupation 
      1      -5.9501      2.00000
      2      -1.8736      2.00000
      3      -1.8713      2.00000
      4      -1.8658      2.00000
      5      -1.8648      2.00000
      6      -1.8605      2.00000
      7      -1.8538      2.00000
      8       3.0463      2.00000
      9       3.0482      2.00000
     10       3.0504      2.00000
     11       3.0510      2.00000
     12       3.0542      2.00000
[...]
    LRDIIS:  cpu time    0.02: real time    0.02
    LRDIAG:  cpu time    0.01: real time    0.01
    MIXING:  cpu time    0.00: real time    0.00
    --------------------------------------------
      LOOP:  cpu time    0.16: real time    0.16

 Broyden mixing:
  rms(total) = 0.13207E-01    rms(broyden)= 0.13205E-01
  rms(prec ) = 0.22888E-01
  weight for this iteration     100.00

 eigenvalues of (default mixing * dielectric matrix)
  average eigenvalue GAMMA=   1.9366
  2.5490  1.3667  1.8940

 Free energy of the ion-electron system (eV)
  ---------------------------------------------------
  -1/2 Hartree   DENC   =        -4.57704322
  -V(xc)+E(xc)   XCENC  =         0.93651000
  PAW double counting   =         3.10756512       -3.15700154
  entropy T*S    EENTRO =         0.00000000
  eigenvalues    EBANDS =       -24.49095022
  ---------------------------------------------------
  free energy    TOTEN  =       -28.18091986 eV

  energy without entropy =      -28.18091986


----------------------------------------- Iteration    3(   6)  ---------------------------------------


   POT+DIJ:  cpu time    0.08: real time    0.08
    HAMIL1:  cpu time    0.01: real time    0.01
    LRDIAG:  cpu time    0.01: real time    0.01
    LRDIIS:  cpu time    0.02: real time    0.02
    LRDIAG:  cpu time    0.01: real time    0.01
    MIXING:  cpu time    0.00: real time    0.00
    --------------------------------------------
      LOOP:  cpu time    0.16: real time    0.16

 Broyden mixing:
  rms(total) = 0.69799E-02    rms(broyden)= 0.69796E-02
  rms(prec ) = 0.11975E-01
  weight for this iteration     100.00

 eigenvalues of (default mixing * dielectric matrix)
  average eigenvalue GAMMA=   2.0751
  3.0358  2.4858  1.1238  1.6550

 Free energy of the ion-electron system (eV)
  ---------------------------------------------------
  -1/2 Hartree   DENC   =        -4.61361937
  -V(xc)+E(xc)   XCENC  =         0.94955124
  PAW double counting   =         3.10039372       -3.14975638
  entropy T*S    EENTRO =         0.00000000
  eigenvalues    EBANDS =       -24.52348609
  ---------------------------------------------------
  free energy    TOTEN  =       -28.23691688 eV

  energy without entropy =      -28.23691688


----------------------------------------- Iteration    3(   7)  ---------------------------------------


   POT+DIJ:  cpu time    0.09: real time    0.09
    HAMIL1:  cpu time    0.00: real time    0.01
    LRDIAG:  cpu time    0.01: real time    0.01
    LRDIIS:  cpu time    0.02: real time    0.02
    LRDIAG:  cpu time    0.01: real time    0.01
    MIXING:  cpu time    0.00: real time    0.00
    --------------------------------------------
      LOOP:  cpu time    0.16: real time    0.17

 Broyden mixing:
  rms(total) = 0.53410E-03    rms(broyden)= 0.53315E-03
  rms(prec ) = 0.99365E-03
  weight for this iteration     100.00

 eigenvalues of (default mixing * dielectric matrix)
  average eigenvalue GAMMA=   1.9688
  3.0921  2.4020  1.1172  1.6821  1.5505

 Free energy of the ion-electron system (eV)
  ---------------------------------------------------
  -1/2 Hartree   DENC   =        -4.62523993
  -V(xc)+E(xc)   XCENC  =         0.95716290
  PAW double counting   =         3.06382508       -3.11263940
  entropy T*S    EENTRO =         0.00000000
  eigenvalues    EBANDS =       -24.55944204
  ---------------------------------------------------
  free energy    TOTEN  =       -28.27633340 eV

  energy without entropy =      -28.27633340


----------------------------------------- Iteration    3(   8)  ---------------------------------------


   POT+DIJ:  cpu time    0.08: real time    0.08
    HAMIL1:  cpu time    0.00: real time    0.01
    LRDIAG:  cpu time    0.01: real time    0.01
    LRDIIS:  cpu time    0.02: real time    0.02
    LRDIAG:  cpu time    0.01: real time    0.01
    MIXING:  cpu time    0.00: real time    0.00
    --------------------------------------------
      LOOP:  cpu time    0.16: real time    0.16

 Broyden mixing:
  rms(total) = 0.27810E-03    rms(broyden)= 0.27802E-03
  rms(prec ) = 0.40960E-03
  weight for this iteration     100.00

 eigenvalues of (default mixing * dielectric matrix)
  average eigenvalue GAMMA=   1.9151
  3.0885  2.4736  2.0655  1.6642  1.1284  1.0703

 Free energy of the ion-electron system (eV)
  ---------------------------------------------------
  -1/2 Hartree   DENC   =        -4.62870408
  -V(xc)+E(xc)   XCENC  =         0.95805389
  PAW double counting   =         3.06782429       -3.11670544
  entropy T*S    EENTRO =         0.00000000
  eigenvalues    EBANDS =       -24.56032134
  ---------------------------------------------------
  free energy    TOTEN  =       -28.27985269 eV

  energy without entropy =      -28.27985269


----------------------------------------- Iteration    3(   9)  ---------------------------------------


   POT+DIJ:  cpu time    0.08: real time    0.08
    HAMIL1:  cpu time    0.01: real time    0.01
    LRDIAG:  cpu time    0.01: real time    0.01
    LRDIIS:  cpu time    0.02: real time    0.02
    LRDIAG:  cpu time    0.01: real time    0.01
    MIXING:  cpu time    0.00: real time    0.00
    --------------------------------------------
      LOOP:  cpu time    0.16: real time    0.16

 Broyden mixing:
  rms(total) = 0.10048E-03    rms(broyden)= 0.10046E-03
  rms(prec ) = 0.15308E-03
  weight for this iteration     100.00

 eigenvalues of (default mixing * dielectric matrix)
  average eigenvalue GAMMA=   1.8916
  3.1760  2.7339  2.3994  1.6740  1.2629  1.1031  0.8919

 Free energy of the ion-electron system (eV)
  ---------------------------------------------------
  -1/2 Hartree   DENC   =        -4.62842522
  -V(xc)+E(xc)   XCENC  =         0.95799756
  PAW double counting   =         3.07004432       -3.11896371
  entropy T*S    EENTRO =         0.00000000
  eigenvalues    EBANDS =       -24.56057145
  ---------------------------------------------------
  free energy    TOTEN  =       -28.27991851 eV

  energy without entropy =      -28.27991851


----------------------------------------- Iteration    3(  10)  ---------------------------------------


   POT+DIJ:  cpu time    0.08: real time    0.08
    HAMIL1:  cpu time    0.00: real time    0.01
    LRDIAG:  cpu time    0.01: real time    0.01
    LRDIIS:  cpu time    0.02: real time    0.02
    LRDIAG:  cpu time    0.01: real time    0.01
    MIXING:  cpu time    0.00: real time    0.00
    --------------------------------------------
      LOOP:  cpu time    0.16: real time    0.16

 Broyden mixing:
  rms(total) = 0.14523E-04    rms(broyden)= 0.14513E-04
  rms(prec ) = 0.23434E-04
  weight for this iteration     100.00

 eigenvalues of (default mixing * dielectric matrix)
  average eigenvalue GAMMA=   1.8322
  3.1952  2.7726  2.4444  1.6699  1.4178  0.9841  1.1104  1.0629

 Free energy of the ion-electron system (eV)
  ---------------------------------------------------
  -1/2 Hartree   DENC   =        -4.62849585
  -V(xc)+E(xc)   XCENC  =         0.95803643
  PAW double counting   =         3.07112161       -3.12005977
  entropy T*S    EENTRO =         0.00000000
  eigenvalues    EBANDS =       -24.56082329
  ---------------------------------------------------
  free energy    TOTEN  =       -28.28022087 eV

  energy without entropy =      -28.28022087


----------------------------------------- Iteration    3(  11)  ---------------------------------------


   POT+DIJ:  cpu time    0.08: real time    0.08
    HAMIL1:  cpu time    0.01: real time    0.01
    LRDIAG:  cpu time    0.01: real time    0.01
    LRDIIS:  cpu time    0.02: real time    0.02
    LRDIAG:  cpu time    0.01: real time    0.01
    MIXING:  cpu time    0.00: real time    0.00
    --------------------------------------------
      LOOP:  cpu time    0.16: real time    0.16

 Broyden mixing:
  rms(total) = 0.38443E-05    rms(broyden)= 0.38420E-05
  rms(prec ) = 0.52911E-05
  weight for this iteration     100.00

 eigenvalues of (default mixing * dielectric matrix)
  average eigenvalue GAMMA=   1.8909
  3.2094  2.7555  2.4687  2.4156  1.6705  1.3887  1.1057  0.9977  1.0066

 Free energy of the ion-electron system (eV)
  ---------------------------------------------------
  -1/2 Hartree   DENC   =        -4.62850347
  -V(xc)+E(xc)   XCENC  =         0.95803329
  PAW double counting   =         3.07120311       -3.12014262
  entropy T*S    EENTRO =         0.00000000
  eigenvalues    EBANDS =       -24.56080428
  ---------------------------------------------------
  free energy    TOTEN  =       -28.28021398 eV

  energy without entropy =      -28.28021398


----------------------------------------- Iteration    3(  12)  ---------------------------------------


   POT+DIJ:  cpu time    0.08: real time    0.08
    HAMIL1:  cpu time    0.01: real time    0.01
    LRDIAG:  cpu time    0.01: real time    0.01
    LRDIIS:  cpu time    0.02: real time    0.02
    LRDIAG:  cpu time    0.01: real time    0.01
    MIXING:  cpu time    0.00: real time    0.00
    --------------------------------------------
      LOOP:  cpu time    0.16: real time    0.16

 Broyden mixing:
  rms(total) = 0.88006E-06    rms(broyden)= 0.87961E-06
  rms(prec ) = 0.13678E-05
  weight for this iteration     100.00

 eigenvalues of (default mixing * dielectric matrix)
  average eigenvalue GAMMA=   1.8336
  3.2066  2.8306  2.4545  2.5389  1.6701  1.3328  1.1937  1.1055  1.0016  1.0016

 Free energy of the ion-electron system (eV)
  ---------------------------------------------------
  -1/2 Hartree   DENC   =        -4.62850817
  -V(xc)+E(xc)   XCENC  =         0.95803416
  PAW double counting   =         3.07111584       -3.12005385
  entropy T*S    EENTRO =         0.00000000
  eigenvalues    EBANDS =       -24.56080583
  ---------------------------------------------------
  free energy    TOTEN  =       -28.28021785 eV

  energy without entropy =      -28.28021785


------------------------ aborting loop because EDIFF is reached ----------------------------------------


 change of polarisation eV/A/(eV/A) component  3 :     0.045    -0.105    50.522
 dielectric tensor                  component  3 :     0.050    -0.116    56.858


--------------------------------------------------------------------------------------------------------


    FORLOC:  cpu time    0.00: real time    0.00
    FORNL :  cpu time    0.10: real time    0.10
    STRESS:  cpu time    0.30: real time    0.31
    FORCOR:  cpu time    0.02: real time    0.02
    FORLOC:  cpu time    0.00: real time    0.00
    FORNL :  cpu time    0.09: real time    0.10
    STRESS:  cpu time    0.30: real time    0.31
    FORCOR:  cpu time    0.02: real time    0.02
    FORNLD:  cpu time    0.01: real time    0.01

 PIEZOELECTRIC TENSOR FIELD DIRECTION 3  (e Angst)
 -----------------------------------------------------------------------------
     0.00173  0.00404  0.00425           (  0.00000  0.00002  0.00000)
     0.00404  0.00566  0.00083           (  0.00002  0.00004  0.00001)
     0.00425  0.00083 -0.00577           (  0.00000  0.00001 -0.00002)

 PIEZOELECTRIC TENSOR FIELD DIRECTION 3  (C/m^2)
 -----------------------------------------------------------------------------
     0.00017  0.00040  0.00042
     0.00040  0.00055  0.00008
     0.00042  0.00008 -0.00056


      POSITION         DIRECTION 3           BORN EFFECTIVE CHARGE    (rigid.aug.   ionic)
 -----------------------------------------------------------------------------------------
      0.00090      5.46999      5.46657    -0.07523 -0.16128 -5.76943 (  0.21593  4.00000)
      1.36749      1.36407      1.36532     0.00704  0.08825 -5.76911 (  0.21594  4.00000)
      2.73157      2.73282      0.00182     0.04674  0.04750 -5.77490 (  0.21593  4.00000)
      4.10032      4.10432      1.36891    -0.03480 -0.05412 -5.84369 (  0.21590  4.00000)
      2.73682      0.00141      2.73829     0.07248 -0.03707 -5.77452 (  0.21593  4.00000)
      4.10391      1.37079      4.10234    -0.01103  0.05805 -5.75263 (  0.21593  4.00000)
      0.00329      2.73484      2.73428    -0.05081  0.16970 -5.78783 (  0.21592  4.00000)
      1.36734      4.10178      4.10265     0.03411 -0.08423 -5.73478 (  0.21594  4.00000)
 -----------------------------------------------------------------------------------------
    total drift (improves with k-points):  -0.01150  0.02680-46.20690




--------------------------------------------------------------------------------------------------------


  LATTYP: Found a simple cubic cell.
 ALAT       =     5.4700000000
  
  Lattice vectors:
  
 A1 = (   5.4700000000,   0.0000000000,   0.0000000000)
 A2 = (   0.0000000000,   5.4700000000,   0.0000000000)
 A3 = (   0.0000000000,   0.0000000000,   5.4700000000)


Analysis of symmetry for initial positions (statically):
=====================================================================
 Subroutine PRICEL returns:
 Original cell was already a primitive cell.
 

 Routine SETGRP: Setting up the symmetry group for a 
 simple cubic supercell.


 Subroutine GETGRP returns: Found  1 space group operations
 (whereof  1 operations were pure point group operations)
 out of a pool of 48 trial point group operations.


The static configuration has the point symmetry C_1 .


Analysis of symmetry for dynamics (positions and initial velocities):
=====================================================================
 Subroutine PRICEL returns:
 Original cell was already a primitive cell.
 

 Routine SETGRP: Setting up the symmetry group for a 
 simple cubic supercell.


 Subroutine GETGRP returns: Found  1 space group operations
 (whereof  1 operations were pure point group operations)
 out of a pool of 48 trial point group operations.


The dynamic configuration has the point symmetry C_1 .


 MACROSCOPIC STATIC DIELECTRIC TENSOR (including local field effects in DFT)
 ------------------------------------------------------
          56.869667    -0.062817     0.049856
          -0.062813    56.843569    -0.115675
           0.049854    -0.115674    56.857549
 ------------------------------------------------------



--------------------------------------------------------------------------------------------------------


  LATTYP: Found a simple cubic cell.
 ALAT       =     5.4700000000
  
  Lattice vectors:
  
 A1 = (   5.4700000000,   0.0000000000,   0.0000000000)
 A2 = (   0.0000000000,   5.4700000000,   0.0000000000)
 A3 = (   0.0000000000,   0.0000000000,   5.4700000000)


Analysis of symmetry for initial positions (statically):
=====================================================================
 Subroutine PRICEL returns:
 Original cell was already a primitive cell.
 

 Routine SETGRP: Setting up the symmetry group for a 
 simple cubic supercell.


 Subroutine GETGRP returns: Found  1 space group operations
 (whereof  1 operations were pure point group operations)
 out of a pool of 48 trial point group operations.


The static configuration has the point symmetry C_1 .


Analysis of symmetry for dynamics (positions and initial velocities):
=====================================================================
 Subroutine PRICEL returns:
 Original cell was already a primitive cell.
 

 Routine SETGRP: Setting up the symmetry group for a 
 simple cubic supercell.


 Subroutine GETGRP returns: Found  1 space group operations
 (whereof  1 operations were pure point group operations)
 out of a pool of 48 trial point group operations.


The dynamic configuration has the point symmetry C_1 .
 
 KPOINTS: Automatic mesh                          

Automatic generation of k-mesh.
Space group operators:
 irot       det(A)        alpha          n_x          n_y          n_z        tau_x        tau_y        tau_z
    1     1.000000     0.000001     1.000000     0.000000     0.000000     0.000000     0.000000     0.000000
 
 Subroutine IBZKPT returns following result:
 ===========================================
 
 Found      1 irreducible k-points:
 
 Following reciprocal coordinates:
            Coordinates               Weight
  0.000000  0.000000  0.000000      1.000000
 
 Following cartesian coordinates:
            Coordinates               Weight
  0.000000  0.000000  0.000000      1.000000
 


--------------------------------------------------------------------------------------------------------




 MACROSCOPIC STATIC DIELECTRIC TENSOR (including local field effects in DFT)
 ------------------------------------------------------
          56.869667    -0.062817     0.049856
          -0.062813    56.843569    -0.115675
           0.049854    -0.115674    56.857549
 ------------------------------------------------------


 PIEZOELECTRIC TENSOR  for field in x, y, z        (e  Angst)
          XX          YY          ZZ          XY          YZ          ZX
  --------------------------------------------------------------------------------
  x     0.00658    -0.00371     0.00440    -0.00213    -0.00110    -0.00531
  y     0.00650    -0.00102    -0.00450     0.00025    -0.00335    -0.00045
  z     0.00173     0.00566    -0.00577     0.00404     0.00083     0.00425

 PIEZOELECTRIC TENSOR  for field in x, y, z        (C/m^2)
          XX          YY          ZZ          XY          YZ          ZX
  --------------------------------------------------------------------------------
  x     0.00064    -0.00036     0.00043    -0.00021    -0.00011    -0.00052
  y     0.00064    -0.00010    -0.00044     0.00002    -0.00033    -0.00004
  z     0.00017     0.00055    -0.00056     0.00040     0.00008     0.00042
 
 BORN EFFECTIVE CHARGES (in e, cummulative output)
 -------------------------------------------------
 ion    1
    1    -5.77143     0.04033     0.02860
    2    -0.06955    -5.76382     0.11303
    3    -0.07523    -0.16128    -5.76943
 ion    2
    1    -5.73517    -0.04966     0.10097
    2     0.02594    -5.74258    -0.05105
    3     0.00704     0.08825    -5.76911
 ion    3
    1    -5.77585    -0.03892    -0.04757
    2     0.07213    -5.77924    -0.03194
    3     0.04674     0.04750    -5.77490
 ion    4
    1    -5.85329     0.05682     0.02745
    2    -0.02061    -5.84534     0.06923
    3    -0.03480    -0.05412    -5.84369
 ion    5
    1    -5.77342     0.11947    -0.03108
    2    -0.02408    -5.76699     0.04013
    3     0.07248    -0.03707    -5.77452
 ion    6
    1    -5.78676    -0.14856    -0.10597
    2     0.13125    -5.75394    -0.06257
    3    -0.01103     0.05805    -5.75263
 ion    7
    1    -5.78698    -0.11470     0.04398
    2     0.02848    -5.79115    -0.10539
    3    -0.05081     0.16970    -5.78783
 ion    8
    1    -5.72765     0.14996    -0.02849
    2    -0.12902    -5.76257     0.05578
    3     0.03411    -0.08423    -5.73478


--------------------------------------------------------------------------------------------------------


     LOOP+:  cpu time   19.34: real time   19.72
    4ORBIT:  cpu time    0.00: real time    0.00

 total amount of memory used by VASP on root node    32224. kBytes
========================================================================

   base      :      30000. kBytes
   nonl-proj :        202. kBytes
   fftplans  :        782. kBytes
   grid      :       1198. kBytes
   one-center:         24. kBytes
   wavefun   :         18. kBytes
 
  
  
 General timing and accounting informations for this job:
 ========================================================
  
                  Total CPU time used (sec):       20.163
                            User time (sec):       15.696
                          System time (sec):        4.467
                         Elapsed time (sec):       22.151
  
                   Maximum memory used (kb):       66692.
                   Average memory used (kb):           0.
  
                          Minor page faults:       207746
                          Major page faults:            0
                 Voluntary context switches:         1419
