 vasp.5.3.3 18Dez12 (build Jan  9 2014 12:00:49) complex                        
  
 executed on             LinuxIFC date 2014.01.29  10:08:17
 running on   48 total cores
 distrk:  each k-point on   48 cores,    1 groups
 distr:  one band on NCORES_PER_BAND=   1 cores,   48 groups


--------------------------------------------------------------------------------------------------------


 INCAR:
 POTCAR:    PAW Si                                

 ----------------------------------------------------------------------------- 
|                                                                             |
|           W    W    AA    RRRRR   N    N  II  N    N   GGGG   !!!           |
|           W    W   A  A   R    R  NN   N  II  NN   N  G    G  !!!           |
|           W    W  A    A  R    R  N N  N  II  N N  N  G       !!!           |
|           W WW W  AAAAAA  RRRRR   N  N N  II  N  N N  G  GGG   !            |
|           WW  WW  A    A  R   R   N   NN  II  N   NN  G    G                |
|           W    W  A    A  R    R  N    N  II  N    N   GGGG   !!!           |
|                                                                             |
|      For optimal performance we recommend that you set                      |
|        NPAR = 4 - approx SQRT( number of cores)                             |
|      (number of cores/NPAR must be integer)                                 |
|      This setting will greatly improve the performance of VASP for DFT.     |
|      The default NPAR=number of cores might be grossly inefficient          |
|      on modern multi-core architectures or massively parallel machines.     |
|      Do your own testing.                                                   |
|      Unfortunately you need to use the default for hybrid, GW and RPA       |
|      calculations.                                                          |
|                                                                             |
 ----------------------------------------------------------------------------- 

 POTCAR:    PAW Si                                
   VRHFIN =Si: s2p2                                                             
   LEXCH  = 91                                                                  
   EATOM  =   103.3076 eV,    7.5929 Ry                                         
                                                                                
   TITEL  = PAW Si                                                              
   LULTRA =        F    use ultrasoft PP ?                                      
   IUNSCR =        1    unscreen: 0-lin 1-nonlin 2-no                           
   RPACOR =    1.500    partial core radius                                     
   POMASS =   28.085; ZVAL   =    4.000    mass and valenz                      
   RCORE  =    1.900    outmost cutoff radius                                   
   RWIGS  =    2.480; RWIGS  =    1.312    wigner-seitz radius (au A)           
   ENMAX  =  245.435; ENMIN  =  184.076 eV                                      
   ICORE  =        2    local potential                                         
   LCOR   =        T    correct aug charges                                     
   LPAW   =        T    paw PP                                                  
   EAUG   =  322.069                                                            
   DEXC   =    -.001                                                            
   RMAX   =    2.943    core radius for proj-oper                               
   RAUG   =    1.300    factor for augmentation sphere                          
   RDEP   =    1.993    core radius for depl-charge                             
   QCUT   =   -4.247; QGAM   =    8.494    optimization parameters              
                                                                                
   Description                                                                  
     l     E      TYP  RCUT    TYP  RCUT                                        
     0   .000     23  1.900                                                     
     0   .000     23  1.900                                                     
     1   .000     23  1.900                                                     
     1   .000     23  1.900                                                     
     2   .000      7  1.900                                                     
  local pseudopotential read in
  partial core-charges read in
  atomic valenz-charges read in
  non local Contribution for L=           0  read in
    real space projection operators read in
  non local Contribution for L=           0  read in
    real space projection operators read in
  non local Contribution for L=           1  read in
    real space projection operators read in
  non local Contribution for L=           1  read in
    real space projection operators read in
    PAW grid and wavefunctions read in
 
   number of l-projection  operators is LMAX  =           4
   number of lm-projection operators is LMMAX =           8
 
  PAW Si                                :
 energy of atom  1       EATOM= -103.3076
 kinetic energy error for atom=    0.0109 (will be added to EATOM!!)
 
 
 POSCAR: OUTCAR.0017.+1.out 1.0e-02              
  positions in cartesian coordinates
  No initial velocities read in
 exchange correlation table for  LEXCH =        7
   RHO(1)=    0.500       N(1)  =     2000
   RHO(2)=  100.500       N(2)  =     4000

 VTST: version 3.0c, (01/09/14)

 CHAIN: initializing optimizer
 
 OPT: Using VASP Dynamics algorithm
 CHAIN: Read ICHAIN            0
 
 POSCAR: OUTCAR.0017.+1.out 1.0e-02              
  positions in cartesian coordinates
  No initial velocities read in
 


--------------------------------------------------------------------------------------------------------


 ion  position               nearest neighbor table
   1  0.001  0.000  0.000-   2 2.37   8 2.37   4 2.37   6 2.37
   2  0.250  0.250  0.250-   7 2.36   1 2.37   5 2.37   3 2.37
   3  0.500  0.500  0.000-   8 2.37   6 2.37   4 2.37   2 2.37
   4  0.750  0.750  0.251-   7 2.37   3 2.37   1 2.37   5 2.37
   5  0.500  0.001  0.501-   6 2.37   2 2.37   8 2.37   4 2.37
   6  0.751  0.251  0.750-   7 2.37   5 2.37   3 2.37   1 2.37
   7  0.001  0.500  0.500-   2 2.36   8 2.37   6 2.37   4 2.37
   8  0.250  0.750  0.750-   7 2.37   1 2.37   3 2.37   5 2.37
 
  LATTYP: Found a simple cubic cell.
 ALAT       =     5.4700000000
  
  Lattice vectors:
  
 A1 = (   5.4700000000,   0.0000000000,   0.0000000000)
 A2 = (   0.0000000000,   5.4700000000,   0.0000000000)
 A3 = (   0.0000000000,   0.0000000000,   5.4700000000)


Analysis of symmetry for initial positions (statically):
=====================================================================
 Subroutine PRICEL returns:
 Original cell was already a primitive cell.
 

 Routine SETGRP: Setting up the symmetry group for a 
 simple cubic supercell.


 Subroutine GETGRP returns: Found  1 space group operations
 (whereof  1 operations were pure point group operations)
 out of a pool of 48 trial point group operations.


The static configuration has the point symmetry C_1 .


Analysis of symmetry for dynamics (positions and initial velocities):
=====================================================================
 Subroutine PRICEL returns:
 Original cell was already a primitive cell.
 

 Routine SETGRP: Setting up the symmetry group for a 
 simple cubic supercell.


 Subroutine GETGRP returns: Found  1 space group operations
 (whereof  1 operations were pure point group operations)
 out of a pool of 48 trial point group operations.


The dynamic configuration has the point symmetry C_1 .


 irot  :   1
 --------------------------------------------------------------------
 isymop:   1   0   0
           0   1   0
           0   0   1

 gtrans:     0.0000000     0.0000000     0.0000000

 ptrans:     0.0000000     0.0000000     0.0000000
 rotmap:
 (   1->   1)  (   2->   2)  (   3->   3)  (   4->   4)  (   5->   5) 
 (   6->   6)  (   7->   7)  (   8->   8) 
 
 
 KPOINTS: Automatic mesh                          

Automatic generation of k-mesh.
Space group operators:
 irot       det(A)        alpha          n_x          n_y          n_z        tau_x        tau_y        tau_z
    1     1.000000     0.000001     1.000000     0.000000     0.000000     0.000000     0.000000     0.000000
 
 Subroutine IBZKPT returns following result:
 ===========================================
 
 Found      1 irreducible k-points:
 
 Following reciprocal coordinates:
            Coordinates               Weight
  0.000000  0.000000  0.000000      1.000000
 
 Following cartesian coordinates:
            Coordinates               Weight
  0.000000  0.000000  0.000000      1.000000
 
 
 Subroutine IBZKPT_HF returns following result:
 ==============================================
 
 Found      1 k-points in 1st BZ
 the following      1 k-points will be used (e.g. in the exchange kernel)
 Following reciprocal coordinates:   # in IRBZ
  0.000000  0.000000  0.000000       1 t-inv F


--------------------------------------------------------------------------------------------------------




 Dimension of arrays:
   k-points           NKPTS =      1   k-points in BZ     NKDIM =      1   number of bands    NBANDS=     48
   number of dos      NEDOS =    301   number of ions     NIONS =      8
   non local maximal  LDIM  =      4   non local SUM 2l+1 LMDIM =      8
   total plane-waves  NPLWV =  21952
   max r-space proj   IRMAX =      1   max aug-charges    IRDMAX=  36071
   dimension x,y,z NGX =    28 NGY =   28 NGZ =   28
   dimension x,y,z NGXF=    56 NGYF=   56 NGZF=   56
   support grid    NGXF=   112 NGYF=  112 NGZF=  112
   ions per type =               8
 NGX,Y,Z   is equivalent  to a cutoff of   8.51,  8.51,  8.51 a.u.
 NGXF,Y,Z  is equivalent  to a cutoff of  17.02, 17.02, 17.02 a.u.


 I would recommend the setting:
   dimension x,y,z NGX =    19 NGY =   19 NGZ =   19
 SYSTEM =  NAPTHA04                                
 POSCAR =  OUTCAR.0017.+1.out 1.0e-02              

 Startparameter for this run:
   NWRITE =      3    write-flag & timer
   PREC   = normal    normal or accurate (medium, high low for compatibility)
   ISTART =      0    job   : 0-new  1-cont  2-samecut
   ICHARG =      2    charge: 1-file 2-atom 10-const
   ISPIN  =      1    spin polarized calculation?
   LNONCOLLINEAR =      F non collinear calculations
   LSORBIT =      F    spin-orbit coupling
   INIWAV =      1    electr: 0-lowe 1-rand  2-diag
   LASPH  =      F    aspherical Exc in radial PAW
   METAGGA=      F    non-selfconsistent MetaGGA calc.

 Electronic Relaxation 1
   ENCUT  =  200.0 eV  14.70 Ry    3.83 a.u.   6.31  6.31  6.31*2*pi/ulx,y,z
   ENINI  =  200.0     initial cutoff
   ENAUG  =  322.1 eV  augmentation charge cutoff
   NELM   =     60;   NELMIN=  2; NELMDL= -5     # of ELM steps 
   EDIFF  = 0.1E-07   stopping-criterion for ELM
   LREAL  =      F    real-space projection
   NLSPLINE    = F    spline interpolate recip. space projectors
   LCOMPAT=      F    compatible to vasp.4.4
   GGA_COMPAT  = T    GGA compatible to vasp.4.4-vasp.4.6
   LMAXPAW     = -100 max onsite density
   LMAXMIX     =    2 max onsite mixed and CHGCAR
   VOSKOWN=      0    Vosko Wilk Nusair interpolation
   ROPT   =    0.00000
 Ionic relaxation
   EDIFFG = 0.1E-06   stopping-criterion for IOM
   NSW    =      0    number of steps for IOM
   NBLOCK =      1;   KBLOCK =      1    inner block; outer block 
   IBRION =     -1    ionic relax: 0-MD 1-quasi-New 2-CG
   NFREE  =      0    steps in history (QN), initial steepest desc. (CG)
   ISIF   =      2    stress and relaxation
   IWAVPR =     10    prediction:  0-non 1-charg 2-wave 3-comb
   ISYM   =      2    0-nonsym 1-usesym 2-fastsym
   LCORR  =      T    Harris-Foulkes like correction to forces

   POTIM  = 0.5000    time-step for ionic-motion
   TEIN   =    0.0    initial temperature
   TEBEG  =    0.0;   TEEND  =   0.0 temperature during run
   SMASS  =  -3.00    Nose mass-parameter (am)
   estimated Nose-frequenzy (Omega)   =  0.10E-29 period in steps =****** mass=  -0.684E-27a.u.
   SCALEE = 1.0000    scale energy and forces
   NPACO  =    256;   APACO  = 16.0  distance and # of slots for P.C.
   PSTRESS=    0.0 pullay stress

  Mass of Ions in am
   POMASS =  28.09
  Ionic Valenz
   ZVAL   =   4.00
  Atomic Wigner-Seitz radii
   RWIGS  =  -1.00
  virtual crystal weights 
   VCA    =   1.00
   NELECT =      32.0000    total number of electrons
   NUPDOWN=      -1.0000    fix difference up-down

 DOS related values:
   EMIN   =  10.00;   EMAX   =-10.00  energy-range for DOS
   EFERMI =   0.00
   ISMEAR =     0;   SIGMA  =   0.02  broadening in eV -4-tet -1-fermi 0-gaus

 Electronic relaxation 2 (details)
   IALGO  =     68    algorithm
   LDIAG  =      T    sub-space diagonalisation (order eigenvalues)
   LSUBROT=      T    optimize rotation matrix (better conditioning)
   TURBO    =      0    0=normal 1=particle mesh
   IRESTART =      0    0=no restart 2=restart with 2 vectors
   NREBOOT  =      0    no. of reboots
   NMIN     =      0    reboot dimension
   EREF     =   0.00    reference energy to select bands
   IMIX   =      4    mixing-type and parameters
     AMIX     =   0.40;   BMIX     =  1.00
     AMIX_MAG =   1.60;   BMIX_MAG =  1.00
     AMIN     =   0.10
     WC   =   100.;   INIMIX=   1;  MIXPRE=   1;  MAXMIX= -45

 Intra band minimization:
   WEIMIN = 0.0000     energy-eigenvalue tresh-hold
   EBREAK =  0.52E-10  absolut break condition
   DEPER  =   0.30     relativ break condition  

   TIME   =   0.40     timestep for ELM

  volume/ion in A,a.u.               =      20.46       138.06
  Fermi-wavevector in a.u.,A,eV,Ry     =   0.950176  1.795573 12.283814  0.902835
  Thomas-Fermi vector in A             =   2.078528
 
 Write flags
   LWAVE  =      F    write WAVECAR
   LCHARG =      F    write CHGCAR
   LVTOT  =      F    write LOCPOT, total local potential
   LVHAR  =      F    write LOCPOT, Hartree potential only
   LELF   =      F    write electronic localiz. function (ELF)
   LORBIT =      0    0 simple, 1 ext, 2 COOP (PROOUT)


 Dipole corrections
   LMONO  =      F    monopole corrections only (constant potential shift)
   LDIPOL =      F    correct potential (dipole corrections)
   IDIPOL =      0    1-x, 2-y, 3-z, 4-all directions 
   EPSILON=  1.0000000 bulk dielectric constant

 Exchange correlation treatment:
   GGA     =    --    GGA type
   LEXCH   =     7    internal setting for exchange type
   VOSKOWN=      0    Vosko Wilk Nusair interpolation
   LHFCALC =     F    Hartree Fock is set to
   LHFONE  =     F    Hartree Fock one center treatment
   AEXX    =    0.0000 exact exchange contribution

 Linear response parameters
   LEPSILON=     T    determine dielectric tensor
   LRPA    =     F    only Hartree local field effects (RPA)
   LNABLA  =     F    use nabla operator in PAW spheres
   LVEL    =     F    velocity operator in full k-point grid
   LINTERFAST=   F  fast interpolation
   KINTER  =     0    interpolate to denser k-point grid
   CSHIFT  =0.1000    complex shift for real part using Kramers Kronig
   OMEGAMAX=  -1.0    maximum frequency
   DEG_THRESHOLD= 0.2000000E-02 threshold for treating states as degnerate
   RTIME   =    0.100 relaxation time in fs

 Orbital magnetization related:
   ORBITALMAG=     F  switch on orbital magnetization
   LCHIMAG   =     F  perturbation theory with respect to B field
   DQ        =  0.001000  dq finite difference perturbation B field



--------------------------------------------------------------------------------------------------------


 Static calculation
 charge density and potential will be updated during run
 non-spin polarized calculation
 RMM-DIIS sequential band-by-band and
  variant of blocked Davidson during initial phase
 perform sub-space diagonalisation
    before iterative eigenvector-optimisation
 modified Broyden-mixing scheme, WC =      100.0
 initial mixing is a Kerker type mixing with AMIX =  0.4000 and BMIX =      1.0000
 Hartree-type preconditioning will be used
 using additional bands           32
 reciprocal scheme for non local part
 use partial core corrections
 calculate Harris-corrections to forces 
   (improved forces if not selfconsistent)
 use gradient corrections 
 use of overlap-Matrix (Vanderbilt PP)
 Gauss-broadening in eV      SIGMA  =   0.02


--------------------------------------------------------------------------------------------------------


  energy-cutoff  :      200.00
  volume of cell :      163.67
      direct lattice vectors                 reciprocal lattice vectors
     5.470000000  0.000000000  0.000000000     0.182815356  0.000000000  0.000000000
     0.000000000  5.470000000  0.000000000     0.000000000  0.182815356  0.000000000
     0.000000000  0.000000000  5.470000000     0.000000000  0.000000000  0.182815356

  length of vectors
     5.470000000  5.470000000  5.470000000     0.182815356  0.182815356  0.182815356


 
 k-points in units of 2pi/SCALE and weight: Automatic mesh                          
   0.00000000  0.00000000  0.00000000       1.000
 
 k-points in reciprocal lattice and weights: Automatic mesh                          
   0.00000000  0.00000000  0.00000000       1.000
 
 position of ions in fractional coordinates (direct lattice) 
   0.00059519  0.00000099  0.00028441
   0.25000099  0.25028441  0.25025698
   0.50028441  0.50025698  0.00006109
   0.75025698  0.75006109  0.25063151
   0.50006109  0.00063151  0.50065580
   0.75063151  0.25065580  0.74996734
   0.00065580  0.49996734  0.49985666
   0.24996734  0.74985666  0.75007078
 
 position of ions in cartesian coordinates  (Angst):
   0.00325568  0.00000540  0.00155573
   1.36750540  1.36905573  1.36890568
   2.73655573  2.73640568  0.00033417
   4.10390568  4.10283417  1.37095434
   2.73533417  0.00345434  2.73858721
   4.10595434  1.37108721  4.10232134
   0.00358721  2.73482134  2.73421593
   1.36732134  4.10171593  4.10288718
 


--------------------------------------------------------------------------------------------------------


 k-point  1 :   0.0000 0.0000 0.0000  plane waves:    1021

 maximum and minimum number of plane-waves per node :      1021     1021

 maximum number of plane-waves:      1021
 maximum index in each direction: 
   IXMAX=    6   IYMAX=    6   IZMAX=    6
   IXMIN=   -6   IYMIN=   -6   IZMIN=   -6

 NGX is ok and might be reduce to  26
 NGY is ok and might be reduce to  26
 NGZ is ok and might be reduce to  26

 serial   3D FFT for wavefunctions
 parallel 3D FFT for charge:
    minimum data exchange during FFTs selected (reduces bandwidth)


 total amount of memory used by VASP on root node    32224. kBytes
========================================================================

   base      :      30000. kBytes
   nonl-proj :        202. kBytes
   fftplans  :        782. kBytes
   grid      :       1198. kBytes
   one-center:         24. kBytes
   wavefun   :         18. kBytes
 
 Broyden mixing: mesh for mixing (old mesh)
   NGX = 13   NGY = 13   NGZ = 13
  (NGX  = 56   NGY  = 56   NGZ  = 56)
  gives a total of   2197 points

 initial charge density was supplied:
 charge density of overlapping atoms calculated
 number of electron      32.0000000 magnetization 
 keeping initial charge density in first step


--------------------------------------------------------------------------------------------------------


 Maximum index for augmentation-charges         1780 (set IRDMAX)


--------------------------------------------------------------------------------------------------------


 First call to EWALD:  gamma=   0.324
 Maximum number of real-space cells 3x 3x 3
 Maximum number of reciprocal cells 3x 3x 3

 FEWALD executed in parallel
    FEWALD:  cpu time    0.00: real time    0.00


----------------------------------------- Iteration    1(   1)  ---------------------------------------


    POTLOK:  cpu time    0.03: real time    0.03
    SETDIJ:  cpu time    0.02: real time    0.02
     EDDAV:  cpu time    0.41: real time    0.41
       DOS:  cpu time    0.00: real time    0.00
    --------------------------------------------
      LOOP:  cpu time    0.46: real time    0.48

 eigenvalue-minimisations  :    96
 total energy-change (2. order) :-0.1013370E+02  (-0.7956019E+03)
 number of electron      32.0000000 magnetization 
 augmentation part       32.0000000 magnetization 

 Free energy of the ion-electron system (eV)
  ---------------------------------------------------
  alpha Z        PSCENC =        12.68944982
  Ewald energy   TEWEN  =      -907.56762810
  -1/2 Hartree   DENC   =       -45.63607293
  -exchange  EXHF       =         0.00000000
  -V(xc)+E(xc)   XCENC  =       -76.79672891
  PAW double counting   =       265.93453375     -123.69690146
  entropy T*S    EENTRO =        -0.00037586
  eigenvalues    EBANDS =        38.56604225
  atomic energy  EATOM  =       826.37398168
  ---------------------------------------------------
  free energy    TOTEN  =       -10.13369977 eV

  energy without entropy =      -10.13332391  energy(sigma->0) =      -10.13351184


--------------------------------------------------------------------------------------------------------




 average (electrostatic) potential at core
  the test charge radii are     0.9892
  (the norm of the test charge is              1.0000)
       1 -84.3482       2 -84.3535       3 -84.3487       4 -84.3469       5 -84.3478
       6 -84.3498       7 -84.3577       8 -84.3523
 
 
 
 E-fermi :   6.6064     XC(G=0):  -9.5533     alpha+bet :-11.7379


 k-point   1 :       0.0000    0.0000    0.0000
  band No.  band energies     occupation 
      1      -6.5895      2.00000
      2      -2.4106      2.00000
      3      -2.2542      2.00000
      4      -2.1265      2.00000
      5      -2.0262      2.00000
      6      -1.8728      2.00000
      7      -1.6769      2.00000
      8       2.7420      2.00000
      9       2.8512      2.00000
     10       2.9916      2.00000
     11       3.1610      2.00000
     12       3.3462      2.00000
     13       4.0759      2.00000
     14       6.1402      2.00000
     15       6.3657      2.00000
     16       6.5659      1.99579
     17       6.6468      0.00421
     18       6.8120      0.00000
     19       6.9090      0.00000
     20       7.1711      0.00000
     21       7.3765      0.00000
     22       8.0426      0.00000
     23       8.9833      0.00000
     24       9.3786      0.00000
     25      10.4535      0.00000
     26      11.4531      0.00000
     27      13.5067      0.00000
     28      14.7694      0.00000
     29      16.5580      0.00000
     30      16.8940      0.00000
     31      17.3568      0.00000
     32      17.5882      0.00000
     33      17.9357      0.00000
     34      18.1366      0.00000
     35      18.4952      0.00000
     36      18.8805      0.00000
     37      19.3692      0.00000
     38      19.5017      0.00000
     39      19.8601      0.00000
     40      20.2573      0.00000
     41      21.0995      0.00000
     42      21.6881      0.00000
     43      22.1785      0.00000
     44      22.7702      0.00000
     45      23.9060      0.00000
     46      24.4020      0.00000
     47      24.8103      0.00000
     48      25.8402      0.00000


--------------------------------------------------------------------------------------------------------


 soft charge-density along one line, spin component           1
         0         1         2         3         4         5         6         7         8         9
 total charge-density along one line
 
 pseudopotential strength for first ion, spin component:           1
 18.662   0.000   0.000   0.000   0.000   0.000   0.000   0.000
  0.000   0.006   0.000   0.000   0.000   0.000   0.000   0.000
  0.000   0.000   4.216   0.000   0.000  -0.004   0.000   0.000
  0.000   0.000   0.000   4.216   0.000   0.000  -0.004   0.000
  0.000   0.000   0.000   0.000   4.216   0.000   0.000  -0.004
  0.000   0.000  -0.004   0.000   0.000   0.005   0.000   0.000
  0.000   0.000   0.000  -0.004   0.000   0.000   0.005   0.000
  0.000   0.000   0.000   0.000  -0.004   0.000   0.000   0.005
 total augmentation occupancy for first ion, spin component:           1
  2.000   0.000   0.000   0.000   0.000   0.000   0.000   0.000
  0.000   0.000   0.000   0.000   0.000   0.000   0.000   0.000
  0.000   0.000   0.667   0.000   0.000   0.000   0.000   0.000
  0.000   0.000   0.000   0.667   0.000   0.000   0.000   0.000
  0.000   0.000   0.000   0.000   0.667   0.000   0.000   0.000
  0.000   0.000   0.000   0.000   0.000   0.000   0.000   0.000
  0.000   0.000   0.000   0.000   0.000   0.000   0.000   0.000
  0.000   0.000   0.000   0.000   0.000   0.000   0.000   0.000


----------------------------------------- Iteration    1(   2)  ---------------------------------------


     EDDAV:  cpu time    0.97: real time    0.97
       DOS:  cpu time    0.00: real time    0.00
    --------------------------------------------
      LOOP:  cpu time    0.98: real time    0.98

 eigenvalue-minimisations  :   144
 total energy-change (2. order) :-0.2431708E+02  (-0.2431299E+02)
 number of electron      32.0000000 magnetization 
 augmentation part       32.0000000 magnetization 

 Free energy of the ion-electron system (eV)
  ---------------------------------------------------
  alpha Z        PSCENC =        12.68944982
  Ewald energy   TEWEN  =      -907.56762810
  -1/2 Hartree   DENC   =       -45.63607293
  -exchange  EXHF       =         0.00000000
  -V(xc)+E(xc)   XCENC  =       -76.79672891
  PAW double counting   =       265.93453375     -123.69690146
  entropy T*S    EENTRO =         0.00000000
  eigenvalues    EBANDS =        14.24858794
  atomic energy  EATOM  =       826.37398168
  ---------------------------------------------------
  free energy    TOTEN  =       -34.45077822 eV

  energy without entropy =      -34.45077822  energy(sigma->0) =      -34.45077822


--------------------------------------------------------------------------------------------------------




 average (electrostatic) potential at core
  the test charge radii are     0.9892
  (the norm of the test charge is              1.0000)
       1 -84.3482       2 -84.3535       3 -84.3487       4 -84.3469       5 -84.3478
       6 -84.3498       7 -84.3577       8 -84.3523
 
 
 
 E-fermi :   5.2494     XC(G=0):  -9.5533     alpha+bet :-11.7379


 k-point   1 :       0.0000    0.0000    0.0000
  band No.  band energies     occupation 
      1      -6.6371      2.00000
      2      -2.6417      2.00000
      3      -2.6346      2.00000
      4      -2.6312      2.00000
      5      -2.6255      2.00000
      6      -2.6232      2.00000
      7      -2.6187      2.00000
      8       2.3759      2.00000
      9       2.3777      2.00000
     10       2.3805      2.00000
     11       2.3827      2.00000
     12       2.3875      2.00000
     13       2.3918      2.00000
     14       5.0712      2.00000
     15       5.0804      2.00000
     16       5.0886      2.00000
     17       6.1480      0.00000
     18       6.1508      0.00000
     19       6.1533      0.00000
     20       6.1584      0.00000
     21       6.1615      0.00000
     22       6.1677      0.00000
     23       7.8538      0.00000
     24       7.8567      0.00000
     25       7.8611      0.00000
     26       8.1267      0.00000
     27      13.2003      0.00000
     28      13.2623      0.00000
     29      13.2700      0.00000
     30      15.1003      0.00000
     31      15.1326      0.00000
     32      15.1699      0.00000
     33      15.2503      0.00000
     34      15.3138      0.00000
     35      15.6333      0.00000
     36      16.3819      0.00000
     37      16.4194      0.00000
     38      16.4435      0.00000
     39      16.5431      0.00000
     40      16.7156      0.00000
     41      16.7527      0.00000
     42      16.7678      0.00000
     43      16.8689      0.00000
     44      17.2328      0.00000
     45      17.9138      0.00000
     46      17.9614      0.00000
     47      17.9913      0.00000
     48      18.0174      0.00000


--------------------------------------------------------------------------------------------------------


 soft charge-density along one line, spin component           1
         0         1         2         3         4         5         6         7         8         9
 total charge-density along one line
 
 pseudopotential strength for first ion, spin component:           1
 18.662   0.000   0.000   0.000   0.000   0.000   0.000   0.000
  0.000   0.006   0.000   0.000   0.000   0.000   0.000   0.000
  0.000   0.000   4.216   0.000   0.000  -0.004   0.000   0.000
  0.000   0.000   0.000   4.216   0.000   0.000  -0.004   0.000
  0.000   0.000   0.000   0.000   4.216   0.000   0.000  -0.004
  0.000   0.000  -0.004   0.000   0.000   0.005   0.000   0.000
  0.000   0.000   0.000  -0.004   0.000   0.000   0.005   0.000
  0.000   0.000   0.000   0.000  -0.004   0.000   0.000   0.005
 total augmentation occupancy for first ion, spin component:           1
  2.000   0.000   0.000   0.000   0.000   0.000   0.000   0.000
  0.000   0.000   0.000   0.000   0.000   0.000   0.000   0.000
  0.000   0.000   0.667   0.000   0.000   0.000   0.000   0.000
  0.000   0.000   0.000   0.667   0.000   0.000   0.000   0.000
  0.000   0.000   0.000   0.000   0.667   0.000   0.000   0.000
  0.000   0.000   0.000   0.000   0.000   0.000   0.000   0.000
  0.000   0.000   0.000   0.000   0.000   0.000   0.000   0.000
  0.000   0.000   0.000   0.000   0.000   0.000   0.000   0.000


----------------------------------------- Iteration    1(   3)  ---------------------------------------


     EDDAV:  cpu time    0.39: real time    0.40
       DOS:  cpu time    0.00: real time    0.00
    --------------------------------------------
      LOOP:  cpu time    0.40: real time    0.40

 eigenvalue-minimisations  :    96
 total energy-change (2. order) :-0.1670816E+00  (-0.1670816E+00)
 number of electron      32.0000000 magnetization 
 augmentation part       32.0000000 magnetization 

 Free energy of the ion-electron system (eV)
  ---------------------------------------------------
  alpha Z        PSCENC =        12.68944982
  Ewald energy   TEWEN  =      -907.56762810
  -1/2 Hartree   DENC   =       -45.63607293
  -exchange  EXHF       =         0.00000000
  -V(xc)+E(xc)   XCENC  =       -76.79672891
  PAW double counting   =       265.93453375     -123.69690146
  entropy T*S    EENTRO =         0.00000000
  eigenvalues    EBANDS =        14.08150637
  atomic energy  EATOM  =       826.37398168
  ---------------------------------------------------
  free energy    TOTEN  =       -34.61785979 eV

  energy without entropy =      -34.61785979  energy(sigma->0) =      -34.61785979


--------------------------------------------------------------------------------------------------------




 average (electrostatic) potential at core
  the test charge radii are     0.9892
  (the norm of the test charge is              1.0000)
       1 -84.3482       2 -84.3535       3 -84.3487       4 -84.3469       5 -84.3478
       6 -84.3498       7 -84.3577       8 -84.3523
 
 
 
 E-fermi :   5.2119     XC(G=0):  -9.5533     alpha+bet :-11.7379


 k-point   1 :       0.0000    0.0000    0.0000
  band No.  band energies     occupation 
      1      -6.6372      2.00000
      2      -2.6431      2.00000
      3      -2.6360      2.00000
      4      -2.6340      2.00000
      5      -2.6277      2.00000
      6      -2.6250      2.00000
      7      -2.6222      2.00000
      8       2.3724      2.00000
      9       2.3756      2.00000
     10       2.3769      2.00000
     11       2.3773      2.00000
     12       2.3804      2.00000
     13       2.3834      2.00000
     14       5.0614      2.00000
     15       5.0666      2.00000
     16       5.0719      2.00000
     17       6.1449      0.00000
     18       6.1478      0.00000
     19       6.1485      0.00000
     20       6.1538      0.00000
     21       6.1590      0.00000
     22       6.1652      0.00000
     23       7.8466      0.00000
     24       7.8495      0.00000
     25       7.8525      0.00000
     26       8.1178      0.00000
     27      13.1845      0.00000
     28      13.1866      0.00000
     29      13.2693      0.00000
     30      15.0843      0.00000
     31      15.0869      0.00000
     32      15.0939      0.00000
     33      15.1128      0.00000
     34      15.1280      0.00000
     35      15.1792      0.00000
     36      16.3188      0.00000
     37      16.3235      0.00000
     38      16.3361      0.00000
     39      16.3745      0.00000
     40      16.4332      0.00000
     41      16.4883      0.00000
     42      16.7110      0.00000
     43      16.7164      0.00000
     44      16.8172      0.00000
     45      17.8862      0.00000
     46      17.8967      0.00000
     47      17.9202      0.00000
     48      17.9396      0.00000


--------------------------------------------------------------------------------------------------------


 soft charge-density along one line, spin component           1
         0         1         2         3         4         5         6         7         8         9
 total charge-density along one line
 
 pseudopotential strength for first ion, spin component:           1
 18.662   0.000   0.000   0.000   0.000   0.000   0.000   0.000
  0.000   0.006   0.000   0.000   0.000   0.000   0.000   0.000
  0.000   0.000   4.216   0.000   0.000  -0.004   0.000   0.000
  0.000   0.000   0.000   4.216   0.000   0.000  -0.004   0.000
  0.000   0.000   0.000   0.000   4.216   0.000   0.000  -0.004
  0.000   0.000  -0.004   0.000   0.000   0.005   0.000   0.000
  0.000   0.000   0.000  -0.004   0.000   0.000   0.005   0.000
  0.000   0.000   0.000   0.000  -0.004   0.000   0.000   0.005
 total augmentation occupancy for first ion, spin component:           1
  2.000   0.000   0.000   0.000   0.000   0.000   0.000   0.000
  0.000   0.000   0.000   0.000   0.000   0.000   0.000   0.000
  0.000   0.000   0.667   0.000   0.000   0.000   0.000   0.000
  0.000   0.000   0.000   0.667   0.000   0.000   0.000   0.000
  0.000   0.000   0.000   0.000   0.667   0.000   0.000   0.000
  0.000   0.000   0.000   0.000   0.000   0.000   0.000   0.000
  0.000   0.000   0.000   0.000   0.000   0.000   0.000   0.000
  0.000   0.000   0.000   0.000   0.000   0.000   0.000   0.000


----------------------------------------- Iteration    1(   4)  ---------------------------------------


     EDDAV:  cpu time    2.02: real time    2.02
       DOS:  cpu time    0.00: real time    0.00
    --------------------------------------------
      LOOP:  cpu time    2.02: real time    2.03

 eigenvalue-minimisations  :   192
 total energy-change (2. order) :-0.3543256E-03  (-0.3543256E-03)
 number of electron      32.0000000 magnetization 
 augmentation part       32.0000000 magnetization 

 Free energy of the ion-electron system (eV)
  ---------------------------------------------------
  alpha Z        PSCENC =        12.68944982
  Ewald energy   TEWEN  =      -907.56762810
  -1/2 Hartree   DENC   =       -45.63607293
  -exchange  EXHF       =         0.00000000
  -V(xc)+E(xc)   XCENC  =       -76.79672891
  PAW double counting   =       265.93453375     -123.69690146
  entropy T*S    EENTRO =         0.00000000
  eigenvalues    EBANDS =        14.08115204
  atomic energy  EATOM  =       826.37398168
  ---------------------------------------------------
  free energy    TOTEN  =       -34.61821411 eV

  energy without entropy =      -34.61821411  energy(sigma->0) =      -34.61821411


--------------------------------------------------------------------------------------------------------




 average (electrostatic) potential at core
  the test charge radii are     0.9892
  (the norm of the test charge is              1.0000)
       1 -84.3482       2 -84.3535       3 -84.3487       4 -84.3469       5 -84.3478
       6 -84.3498       7 -84.3577       8 -84.3523
 
 
 
 E-fermi :   5.2006     XC(G=0):  -9.5533     alpha+bet :-11.7379


 k-point   1 :       0.0000    0.0000    0.0000
  band No.  band energies     occupation 
      1      -6.6372      2.00000
      2      -2.6431      2.00000
      3      -2.6360      2.00000
      4      -2.6340      2.00000
      5      -2.6277      2.00000
      6      -2.6250      2.00000
      7      -2.6222      2.00000
      8       2.3724      2.00000
      9       2.3755      2.00000
     10       2.3769      2.00000
     11       2.3773      2.00000
     12       2.3804      2.00000
     13       2.3833      2.00000
     14       5.0614      2.00000
     15       5.0666      2.00000
     16       5.0719      2.00000
     17       6.1449      0.00000
     18       6.1478      0.00000
     19       6.1485      0.00000
     20       6.1538      0.00000
     21       6.1590      0.00000
     22       6.1652      0.00000
     23       7.8466      0.00000
     24       7.8495      0.00000
     25       7.8524      0.00000
     26       8.1178      0.00000
     27      13.1838      0.00000
     28      13.1838      0.00000
     29      13.2693      0.00000
     30      15.0775      0.00000
     31      15.0815      0.00000
     32      15.0845      0.00000
     33      15.0864      0.00000
     34      15.0875      0.00000
     35      15.0911      0.00000
     36      16.2969      0.00000
     37      16.3022      0.00000
     38      16.3065      0.00000
     39      16.3130      0.00000
     40      16.3194      0.00000
     41      16.3246      0.00000
     42      16.7011      0.00000
     43      16.7043      0.00000
     44      16.7078      0.00000
     45      17.8779      0.00000
     46      17.8816      0.00000
     47      17.8872      0.00000
     48      17.8928      0.00000


--------------------------------------------------------------------------------------------------------


 soft charge-density along one line, spin component           1
         0         1         2         3         4         5         6         7         8         9
 total charge-density along one line
 
 pseudopotential strength for first ion, spin component:           1
 18.662   0.000   0.000   0.000   0.000   0.000   0.000   0.000
  0.000   0.006   0.000   0.000   0.000   0.000   0.000   0.000
  0.000   0.000   4.216   0.000   0.000  -0.004   0.000   0.000
  0.000   0.000   0.000   4.216   0.000   0.000  -0.004   0.000
  0.000   0.000   0.000   0.000   4.216   0.000   0.000  -0.004
  0.000   0.000  -0.004   0.000   0.000   0.005   0.000   0.000
  0.000   0.000   0.000  -0.004   0.000   0.000   0.005   0.000
  0.000   0.000   0.000   0.000  -0.004   0.000   0.000   0.005
 total augmentation occupancy for first ion, spin component:           1
  2.000   0.000   0.000   0.000   0.000   0.000   0.000   0.000
  0.000   0.000   0.000   0.000   0.000   0.000   0.000   0.000
  0.000   0.000   0.667   0.000   0.000   0.000   0.000   0.000
  0.000   0.000   0.000   0.667   0.000   0.000   0.000   0.000
  0.000   0.000   0.000   0.000   0.667   0.000   0.000   0.000
  0.000   0.000   0.000   0.000   0.000   0.000   0.000   0.000
  0.000   0.000   0.000   0.000   0.000   0.000   0.000   0.000
  0.000   0.000   0.000   0.000   0.000   0.000   0.000   0.000


----------------------------------------- Iteration    1(   5)  ---------------------------------------


     EDDAV:  cpu time    0.39: real time    0.39
       DOS:  cpu time    0.00: real time    0.00
    CHARGE:  cpu time    0.02: real time    0.02
    MIXING:  cpu time    0.00: real time    0.00
    --------------------------------------------
      LOOP:  cpu time    0.42: real time    0.43

 eigenvalue-minimisations  :    96
 total energy-change (2. order) :-0.3030777E-08  (-0.3032467E-08)
 number of electron      31.9999999 magnetization 
 augmentation part       -1.8053324 magnetization 

 Broyden mixing:
  rms(total) = 0.79306E+00    rms(broyden)= 0.79301E+00
  rms(prec ) = 0.15229E+01
  weight for this iteration     100.00

 Free energy of the ion-electron system (eV)
  ---------------------------------------------------
  alpha Z        PSCENC =        12.68944982
  Ewald energy   TEWEN  =      -907.56762810
  -1/2 Hartree   DENC   =       -45.63607293
  -exchange  EXHF       =         0.00000000
  -V(xc)+E(xc)   XCENC  =       -76.79672891
  PAW double counting   =       265.93453375     -123.69690146
  entropy T*S    EENTRO =         0.00000000
  eigenvalues    EBANDS =        14.08115204
  atomic energy  EATOM  =       826.37398168
  ---------------------------------------------------
  free energy    TOTEN  =       -34.61821412 eV

  energy without entropy =      -34.61821412  energy(sigma->0) =      -34.61821412


--------------------------------------------------------------------------------------------------------




 average (electrostatic) potential at core
  the test charge radii are     0.9892
  (the norm of the test charge is              1.0000)
       1 -84.3482       2 -84.3535       3 -84.3487       4 -84.3469       5 -84.3478
       6 -84.3498       7 -84.3577       8 -84.3523
 
 
 
 E-fermi :   5.1971     XC(G=0):  -9.5533     alpha+bet :-11.7379


 k-point   1 :       0.0000    0.0000    0.0000
  band No.  band energies     occupation 
      1      -6.6372      2.00000
      2      -2.6431      2.00000
      3      -2.6360      2.00000
      4      -2.6340      2.00000
      5      -2.6277      2.00000
      6      -2.6250      2.00000
      7      -2.6222      2.00000
      8       2.3724      2.00000
      9       2.3755      2.00000
     10       2.3769      2.00000
     11       2.3773      2.00000
     12       2.3804      2.00000
     13       2.3833      2.00000
     14       5.0614      2.00000
     15       5.0666      2.00000
     16       5.0719      2.00000
     17       6.1449      0.00000
     18       6.1478      0.00000
     19       6.1485      0.00000
     20       6.1538      0.00000
     21       6.1590      0.00000
     22       6.1652      0.00000
     23       7.8466      0.00000
     24       7.8495      0.00000
     25       7.8524      0.00000
     26       8.1178      0.00000
     27      13.1838      0.00000
     28      13.1838      0.00000
     29      13.2693      0.00000
     30      15.0774      0.00000
     31      15.0815      0.00000
     32      15.0845      0.00000
     33      15.0864      0.00000
     34      15.0874      0.00000
     35      15.0911      0.00000
     36      16.2967      0.00000
     37      16.3020      0.00000
     38      16.3058      0.00000
     39      16.3128      0.00000
     40      16.3190      0.00000
     41      16.3244      0.00000
     42      16.7010      0.00000
     43      16.7043      0.00000
     44      16.7076      0.00000
     45      17.8739      0.00000
     46      17.8782      0.00000
     47      17.8814      0.00000
     48      17.8855      0.00000


--------------------------------------------------------------------------------------------------------


 soft charge-density along one line, spin component           1
         0         1         2         3         4         5         6         7         8         9
 total charge-density along one line
 
 pseudopotential strength for first ion, spin component:           1
 18.662   0.000   0.000   0.000   0.000   0.000   0.000   0.000
  0.000   0.006   0.000   0.000   0.000   0.000   0.000   0.000
  0.000   0.000   4.216   0.000   0.000  -0.004   0.000   0.000
  0.000   0.000   0.000   4.216   0.000   0.000  -0.004   0.000
  0.000   0.000   0.000   0.000   4.216   0.000   0.000  -0.004
  0.000   0.000  -0.004   0.000   0.000   0.005   0.000   0.000
  0.000   0.000   0.000  -0.004   0.000   0.000   0.005   0.000
  0.000   0.000   0.000   0.000  -0.004   0.000   0.000   0.005
 total augmentation occupancy for first ion, spin component:           1
  1.380  -1.051   0.000   0.000   0.002   0.000   0.000  -0.001
 -1.051   0.917   0.000   0.000  -0.001   0.000   0.000   0.002
  0.000   0.000   1.166   0.001   0.000  -0.758  -0.002   0.000
  0.000   0.000   0.001   1.165   0.000  -0.002  -0.758   0.000
  0.002  -0.001   0.000   0.000   1.162   0.000   0.000  -0.756
  0.000   0.000  -0.758  -0.002   0.000   0.570   0.002   0.000
  0.000   0.000  -0.002  -0.758   0.000   0.002   0.569   0.000
 -0.001   0.002   0.000   0.000  -0.756   0.000   0.000   0.567


----------------------------------------- Iteration    1(   6)  ---------------------------------------


    POTLOK:  cpu time    0.02: real time    0.02
    SETDIJ:  cpu time    0.02: real time    0.02
    EDDIAG:  cpu time    0.03: real time    0.03
  RMM-DIIS:  cpu time    0.02: real time    0.02
    ORTHCH:  cpu time    0.01: real time    0.01
       DOS:  cpu time    0.00: real time    0.00
    CHARGE:  cpu time    0.02: real time    0.02
    MIXING:  cpu time    0.00: real time    0.00
    --------------------------------------------
      LOOP:  cpu time    0.13: real time    0.14

 eigenvalue-minimisations  :    96
 total energy-change (2. order) : 0.1001703E+01  (-0.3198101E-01)
 number of electron      31.9999999 magnetization 
 augmentation part       -1.7684042 magnetization 

 Broyden mixing:
  rms(total) = 0.47399E+00    rms(broyden)= 0.47399E+00
  rms(prec ) = 0.91066E+00
  weight for this iteration     100.00

 eigenvalues of (default mixing * dielectric matrix)
  average eigenvalue GAMMA=   2.4573
  2.4573

 Free energy of the ion-electron system (eV)
  ---------------------------------------------------
  alpha Z        PSCENC =        12.68944982
  Ewald energy   TEWEN  =      -907.56762810
  -1/2 Hartree   DENC   =       -54.68265052
  -exchange  EXHF       =         0.00000000
  -V(xc)+E(xc)   XCENC  =       -75.44941400
  PAW double counting   =       286.06059243     -144.35889887
  entropy T*S    EENTRO =         0.00000000
  eigenvalues    EBANDS =        23.31805648
  atomic energy  EATOM  =       826.37398168
  ---------------------------------------------------
  free energy    TOTEN  =       -33.61651109 eV

  energy without entropy =      -33.61651109  energy(sigma->0) =      -33.61651109


--------------------------------------------------------------------------------------------------------




 average (electrostatic) potential at core
  the test charge radii are     0.9892
  (the norm of the test charge is              1.0000)
       1 -83.8317       2 -83.8342       3 -83.8319       4 -83.8310       5 -83.8315
       6 -83.8324       7 -83.8362       8 -83.8336
 
 
 
 E-fermi :   5.5492     XC(G=0):  -9.4504     alpha+bet :-11.7379


 k-point   1 :       0.0000    0.0000    0.0000
  band No.  band energies     occupation 
      1      -6.3787      2.00000
      2      -2.3425      2.00000
      3      -2.3365      2.00000
      4      -2.3349      2.00000
      5      -2.3294      2.00000
      6      -2.3269      2.00000
      7      -2.3246      2.00000
      8       2.6340      2.00000
      9       2.6368      2.00000
     10       2.6381      2.00000
     11       2.6384      2.00000
     12       2.6412      2.00000
     13       2.6438      2.00000
     14       5.3948      2.00000
     15       5.4000      2.00000
     16       5.4052      2.00000
     17       6.2603      0.00000
     18       6.2628      0.00000
     19       6.2636      0.00000
     20       6.2682      0.00000
     21       6.2727      0.00000
     22       6.2782      0.00000
     23       8.0539      0.00000
     24       8.0569      0.00000
     25       8.0599      0.00000
     26       8.4862      0.00000
     27      13.3050      0.00000
     28      13.3569      0.00000
     29      13.3569      0.00000
     30      15.3740      0.00000
     31      15.3777      0.00000
     32      15.3807      0.00000
     33      15.3825      0.00000
     34      15.3835      0.00000
     35      15.3870      0.00000
     36      16.5337      0.00000
     37      16.5386      0.00000
     38      16.5421      0.00000
     39      16.5484      0.00000
     40      16.5541      0.00000
     41      16.5589      0.00000
     42      16.7455      0.00000
     43      16.7489      0.00000
     44      16.7523      0.00000
     45      18.1642      0.00000
     46      18.1681      0.00000
     47      18.1698      0.00000
     48      18.1748      0.00000


--------------------------------------------------------------------------------------------------------


 soft charge-density along one line, spin component           1
         0         1         2         3         4         5         6         7         8         9
 total charge-density along one line
 
 pseudopotential strength for first ion, spin component:           1
 18.635  -0.001   0.000   0.000   0.000   0.000   0.000   0.000
 -0.001   0.006   0.000   0.000   0.000   0.000   0.000   0.000
  0.000   0.000   4.221   0.000   0.000  -0.004   0.000   0.000
  0.000   0.000   0.000   4.221   0.000   0.000  -0.004   0.000
  0.000   0.000   0.000   0.000   4.221   0.000   0.000  -0.004
  0.000   0.000  -0.004   0.000   0.000   0.005   0.000   0.000
  0.000   0.000   0.000  -0.004   0.000   0.000   0.005   0.000
  0.000   0.000   0.000   0.000  -0.004   0.000   0.000   0.005
 total augmentation occupancy for first ion, spin component:           1
  1.351  -1.089   0.000   0.000   0.002   0.000   0.000  -0.002
 -1.089   0.995   0.000   0.000   0.000   0.000   0.000   0.002
  0.000   0.000   1.148   0.001   0.000  -0.782  -0.002   0.000
  0.000   0.000   0.001   1.148   0.000  -0.002  -0.782   0.000
  0.002   0.000   0.000   0.000   1.144   0.000   0.000  -0.780
  0.000   0.000  -0.782  -0.002   0.000   0.608   0.002   0.000
  0.000   0.000  -0.002  -0.782   0.000   0.002   0.607   0.000
 -0.002   0.002   0.000   0.000  -0.780   0.000   0.000   0.606


----------------------------------------- Iteration    1(   7)  ---------------------------------------


    POTLOK:  cpu time    0.02: real time    0.02
    SETDIJ:  cpu time    0.02: real time    0.02
    EDDIAG:  cpu time    0.02: real time    0.02
  RMM-DIIS:  cpu time    0.02: real time    0.02
    ORTHCH:  cpu time    0.01: real time    0.01
       DOS:  cpu time    0.00: real time    0.00
    CHARGE:  cpu time    0.02: real time    0.02
    MIXING:  cpu time    0.00: real time    0.00
    --------------------------------------------
      LOOP:  cpu time    0.12: real time    0.12

 eigenvalue-minimisations  :    96
 total energy-change (2. order) : 0.4246685E+00  (-0.7388586E-01)
 number of electron      31.9999999 magnetization 
 augmentation part       -1.7214465 magnetization 

 Broyden mixing:
  rms(total) = 0.46245E-01    rms(broyden)= 0.46235E-01
  rms(prec ) = 0.78442E-01
  weight for this iteration     100.00

 eigenvalues of (default mixing * dielectric matrix)
  average eigenvalue GAMMA=   2.5303
  2.5303  2.5303

 Free energy of the ion-electron system (eV)
  ---------------------------------------------------
  alpha Z        PSCENC =        12.68944982
  Ewald energy   TEWEN  =      -907.56762810
  -1/2 Hartree   DENC   =       -70.51403416
  -exchange  EXHF       =         0.00000000
  -V(xc)+E(xc)   XCENC  =       -73.00921382
  PAW double counting   =       313.72488632     -172.73690517
  entropy T*S    EENTRO =         0.00000000
  eigenvalues    EBANDS =        37.84762090
  atomic energy  EATOM  =       826.37398168
  ---------------------------------------------------
  free energy    TOTEN  =       -33.19184254 eV

  energy without entropy =      -33.19184254  energy(sigma->0) =      -33.19184254


--------------------------------------------------------------------------------------------------------




 average (electrostatic) potential at core
  the test charge radii are     0.9892
  (the norm of the test charge is              1.0000)
       1 -83.1446       2 -83.1463       3 -83.1451       4 -83.1443       5 -83.1447
       6 -83.1454       7 -83.1473       8 -83.1462
 
 
 
 E-fermi :   6.0980     XC(G=0):  -9.2018     alpha+bet :-11.7379


 k-point   1 :       0.0000    0.0000    0.0000
  band No.  band energies     occupation 
      1      -5.9621      2.00000
      2      -1.8745      2.00000
      3      -1.8695      2.00000
      4      -1.8682      2.00000
      5      -1.8633      2.00000
      6      -1.8611      2.00000
      7      -1.8592      2.00000
      8       3.0469      2.00000
      9       3.0493      2.00000
     10       3.0507      2.00000
     11       3.0512      2.00000
     12       3.0537      2.00000
     13       3.0560      2.00000
     14       5.9196      2.00000
     15       5.9246      2.00000
     16       5.9297      2.00000
     17       6.5197      0.00000
     18       6.5219      0.00000
     19       6.5228      0.00000
     20       6.5264      0.00000
     21       6.5302      0.00000
     22       6.5350      0.00000
     23       8.3790      0.00000
     24       8.3820      0.00000
     25       8.3851      0.00000
     26       9.0452      0.00000
     27      13.6014      0.00000
     28      13.6204      0.00000
     29      13.6204      0.00000
     30      15.8246      0.00000
     31      15.8280      0.00000
     32      15.8308      0.00000
     33      15.8323      0.00000
     34      15.8331      0.00000
     35      15.8364      0.00000
     36      16.9001      0.00000
     37      16.9033      0.00000
     38      16.9061      0.00000
     39      16.9551      0.00000
     40      16.9591      0.00000
     41      16.9618      0.00000
     42      16.9673      0.00000
     43      16.9725      0.00000
     44      16.9768      0.00000
     45      18.6624      0.00000
     46      18.6688      0.00000
     47      18.6720      0.00000
     48      18.6775      0.00000


--------------------------------------------------------------------------------------------------------


 soft charge-density along one line, spin component           1
         0         1         2         3         4         5         6         7         8         9
 total charge-density along one line
 
 pseudopotential strength for first ion, spin component:           1
 18.596  -0.001   0.000   0.000   0.000   0.000   0.000   0.000
 -0.001   0.006   0.000   0.000   0.000   0.000   0.000   0.000
  0.000   0.000   4.227   0.000   0.000  -0.005   0.000   0.000
  0.000   0.000   0.000   4.227   0.000   0.000  -0.005   0.000
  0.000   0.000   0.000   0.000   4.227   0.000   0.000  -0.005
  0.000   0.000  -0.005   0.000   0.000   0.005   0.000   0.000
  0.000   0.000   0.000  -0.005   0.000   0.000   0.005   0.000
  0.000   0.000   0.000   0.000  -0.005   0.000   0.000   0.005
 total augmentation occupancy for first ion, spin component:           1
  1.315  -1.111   0.001   0.000   0.002   0.000   0.000  -0.002
 -1.111   1.057   0.001   0.000   0.000   0.000   0.000   0.002
  0.001   0.001   1.123   0.001   0.000  -0.805  -0.002   0.000
  0.000   0.000   0.001   1.123   0.000  -0.002  -0.805   0.000
  0.002   0.000   0.000   0.000   1.120   0.000   0.000  -0.803
  0.000   0.000  -0.805  -0.002   0.000   0.652   0.002   0.000
  0.000   0.000  -0.002  -0.805   0.000   0.002   0.651   0.000
 -0.002   0.002   0.000   0.000  -0.803   0.000   0.000   0.650


----------------------------------------- Iteration    1(   8)  ---------------------------------------


    POTLOK:  cpu time    0.02: real time    0.02
    SETDIJ:  cpu time    0.02: real time    0.02
    EDDIAG:  cpu time    0.02: real time    0.02
  RMM-DIIS:  cpu time    0.03: real time    0.03
    ORTHCH:  cpu time    0.01: real time    0.01
       DOS:  cpu time    0.00: real time    0.00
    CHARGE:  cpu time    0.02: real time    0.02
    MIXING:  cpu time    0.00: real time    0.00
    --------------------------------------------
      LOOP:  cpu time    0.13: real time    0.13

 eigenvalue-minimisations  :    96
 total energy-change (2. order) :-0.3198869E-01  (-0.2163825E-02)
 number of electron      31.9999999 magnetization 
 augmentation part       -1.7275428 magnetization 

 Broyden mixing:
  rms(total) = 0.74782E-02    rms(broyden)= 0.74777E-02
  rms(prec ) = 0.17934E-01
  weight for this iteration     100.00

 eigenvalues of (default mixing * dielectric matrix)
  average eigenvalue GAMMA=   2.1214
  1.2743  2.8653  2.2246

 Free energy of the ion-electron system (eV)
  ---------------------------------------------------
  alpha Z        PSCENC =        12.68944982
  Ewald energy   TEWEN  =      -907.56762810
  -1/2 Hartree   DENC   =       -70.39888670
  -exchange  EXHF       =         0.00000000
  -V(xc)+E(xc)   XCENC  =       -72.96564507
  PAW double counting   =       307.35995257     -166.18708596
  entropy T*S    EENTRO =         0.00000000
  eigenvalues    EBANDS =        37.47203054
  atomic energy  EATOM  =       826.37398168
  ---------------------------------------------------
  free energy    TOTEN  =       -33.22383122 eV

  energy without entropy =      -33.22383122  energy(sigma->0) =      -33.22383122


--------------------------------------------------------------------------------------------------------




 average (electrostatic) potential at core
  the test charge radii are     0.9892
  (the norm of the test charge is              1.0000)
       1 -83.2466       2 -83.2507       3 -83.2472       4 -83.2456       5 -83.2464
       6 -83.2480       7 -83.2537       8 -83.2498
 
 
 
 E-fermi :   6.0371     XC(G=0):  -9.1504     alpha+bet :-11.7379


 k-point   1 :       0.0000    0.0000    0.0000
  band No.  band energies     occupation 
      1      -5.9631      2.00000
      2      -1.8871      2.00000
      3      -1.8814      2.00000
      4      -1.8800      2.00000
      5      -1.8745      2.00000
      6      -1.8722      2.00000
      7      -1.8701      2.00000
      8       3.0350      2.00000
      9       3.0376      2.00000
     10       3.0391      2.00000
     11       3.0397      2.00000
     12       3.0425      2.00000
     13       3.0449      2.00000
     14       5.9035      2.00000
     15       5.9085      2.00000
     16       5.9136      2.00000
     17       6.5701      0.00000
     18       6.5727      0.00000
     19       6.5735      0.00000
     20       6.5774      0.00000
     21       6.5814      0.00000
     22       6.5864      0.00000
     23       8.3683      0.00000
     24       8.3713      0.00000
     25       8.3744      0.00000
     26       9.0381      0.00000
     27      13.6064      0.00000
     28      13.6065      0.00000
     29      13.7785      0.00000
     30      15.8100      0.00000
     31      15.8136      0.00000
     32      15.8163      0.00000
     33      15.8175      0.00000
     34      15.8183      0.00000
     35      15.8216      0.00000
     36      16.9371      0.00000
     37      16.9398      0.00000
     38      16.9419      0.00000
     39      16.9623      0.00000
     40      16.9657      0.00000
     41      16.9681      0.00000
     42      16.9738      0.00000
     43      16.9793      0.00000
     44      16.9837      0.00000
     45      18.6986      0.00000
     46      18.7072      0.00000
     47      18.7105      0.00000
     48      18.7161      0.00000


--------------------------------------------------------------------------------------------------------


 soft charge-density along one line, spin component           1
         0         1         2         3         4         5         6         7         8         9
 total charge-density along one line
 
 pseudopotential strength for first ion, spin component:           1
 18.599  -0.001   0.000   0.000   0.000   0.000   0.000   0.000
 -0.001   0.006   0.000   0.000   0.000   0.000   0.000   0.000
  0.000   0.000   4.224   0.000   0.000  -0.005   0.000   0.000
  0.000   0.000   0.000   4.224   0.000   0.000  -0.005   0.000
  0.000   0.000   0.000   0.000   4.224   0.000   0.000  -0.005
  0.000   0.000  -0.005   0.000   0.000   0.005   0.000   0.000
  0.000   0.000   0.000  -0.005   0.000   0.000   0.005   0.000
  0.000   0.000   0.000   0.000  -0.005   0.000   0.000   0.005
 total augmentation occupancy for first ion, spin component:           1
  1.320  -1.091   0.001   0.000   0.002   0.000   0.000  -0.002
 -1.091   1.019   0.001   0.000   0.000   0.000   0.000   0.002
  0.001   0.001   1.124   0.001   0.000  -0.801  -0.002   0.000
  0.000   0.000   0.001   1.124   0.000  -0.002  -0.801   0.000
  0.002   0.000   0.000   0.000   1.121   0.000   0.000  -0.799
  0.000   0.000  -0.801  -0.002   0.000   0.647   0.002   0.000
  0.000   0.000  -0.002  -0.801   0.000   0.002   0.647   0.000
 -0.002   0.002   0.000   0.000  -0.799   0.000   0.000   0.645


----------------------------------------- Iteration    1(   9)  ---------------------------------------


    POTLOK:  cpu time    0.03: real time    0.03
    SETDIJ:  cpu time    0.02: real time    0.02
    EDDIAG:  cpu time    0.02: real time    0.02
  RMM-DIIS:  cpu time    0.05: real time    0.05
    ORTHCH:  cpu time    0.01: real time    0.01
       DOS:  cpu time    0.00: real time    0.00
    CHARGE:  cpu time    0.02: real time    0.02
    MIXING:  cpu time    0.00: real time    0.00
    --------------------------------------------
      LOOP:  cpu time    0.15: real time    0.15

 eigenvalue-minimisations  :   107
 total energy-change (2. order) :-0.1128614E-02  (-0.1263050E-03)
 number of electron      31.9999999 magnetization 
 augmentation part       -1.7274603 magnetization 

 Broyden mixing:
  rms(total) = 0.41709E-02    rms(broyden)= 0.41708E-02
  rms(prec ) = 0.68351E-02
  weight for this iteration     100.00

 eigenvalues of (default mixing * dielectric matrix)
  average eigenvalue GAMMA=   2.3182
  0.9910  3.2943  2.7022  2.2855

 Free energy of the ion-electron system (eV)
  ---------------------------------------------------
  alpha Z        PSCENC =        12.68944982
  Ewald energy   TEWEN  =      -907.56762810
  -1/2 Hartree   DENC   =       -70.79570247
  -exchange  EXHF       =         0.00000000
  -V(xc)+E(xc)   XCENC  =       -72.90641016
  PAW double counting   =       307.71345751     -166.55107335
  entropy T*S    EENTRO =         0.00000000
  eigenvalues    EBANDS =        37.81896523
  atomic energy  EATOM  =       826.37398168
  ---------------------------------------------------
  free energy    TOTEN  =       -33.22495984 eV

  energy without entropy =      -33.22495984  energy(sigma->0) =      -33.22495984


--------------------------------------------------------------------------------------------------------




 average (electrostatic) potential at core
  the test charge radii are     0.9892
  (the norm of the test charge is              1.0000)
       1 -83.2329       2 -83.2359       3 -83.2332       4 -83.2320       5 -83.2326
       6 -83.2337       7 -83.2381       8 -83.2351
 
 
 
 E-fermi :   6.0520     XC(G=0):  -9.1362     alpha+bet :-11.7379


 k-point   1 :       0.0000    0.0000    0.0000
  band No.  band energies     occupation 
      1      -5.9519      2.00000
      2      -1.8756      2.00000
      3      -1.8701      2.00000
      4      -1.8688      2.00000
      5      -1.8635      2.00000
      6      -1.8612      2.00000
      7      -1.8592      2.00000
      8       3.0450      2.00000
      9       3.0475      2.00000
     10       3.0490      2.00000
     11       3.0495      2.00000
     12       3.0522      2.00000
     13       3.0546      2.00000
     14       5.9156      2.00000
     15       5.9206      2.00000
     16       5.9257      2.00000
     17       6.5841      0.00000
     18       6.5867      0.00000
     19       6.5875      0.00000
     20       6.5914      0.00000
     21       6.5955      0.00000
     22       6.6005      0.00000
     23       8.3760      0.00000
     24       8.3790      0.00000
     25       8.3820      0.00000
     26       9.0526      0.00000
     27      13.6117      0.00000
     28      13.6117      0.00000
     29      13.8107      0.00000
     30      15.8205      0.00000
     31      15.8240      0.00000
     32      15.8267      0.00000
     33      15.8281      0.00000
     34      15.8289      0.00000
     35      15.8322      0.00000
     36      16.9471      0.00000
     37      16.9498      0.00000
     38      16.9520      0.00000
     39      16.9744      0.00000
     40      16.9778      0.00000
     41      16.9802      0.00000
     42      16.9859      0.00000
     43      16.9914      0.00000
     44      16.9957      0.00000
     45      18.7164      0.00000
     46      18.7258      0.00000
     47      18.7294      0.00000
     48      18.7349      0.00000


--------------------------------------------------------------------------------------------------------


 soft charge-density along one line, spin component           1
         0         1         2         3         4         5         6         7         8         9
 total charge-density along one line
 
 pseudopotential strength for first ion, spin component:           1
 18.598  -0.001   0.000   0.000   0.000   0.000   0.000   0.000
 -0.001   0.006   0.000   0.000   0.000   0.000   0.000   0.000
  0.000   0.000   4.224   0.000   0.000  -0.005   0.000   0.000
  0.000   0.000   0.000   4.224   0.000   0.000  -0.005   0.000
  0.000   0.000   0.000   0.000   4.224   0.000   0.000  -0.005
  0.000   0.000  -0.005   0.000   0.000   0.005   0.000   0.000
  0.000   0.000   0.000  -0.005   0.000   0.000   0.005   0.000
  0.000   0.000   0.000   0.000  -0.005   0.000   0.000   0.005
 total augmentation occupancy for first ion, spin component:           1
  1.320  -1.086   0.001   0.000   0.002   0.000   0.000  -0.002
 -1.086   1.011   0.001   0.000   0.000   0.000   0.000   0.002
  0.001   0.001   1.124   0.001   0.000  -0.801  -0.002   0.000
  0.000   0.000   0.001   1.124   0.000  -0.002  -0.801   0.000
  0.002   0.000   0.000   0.000   1.121   0.000   0.000  -0.798
  0.000   0.000  -0.801  -0.002   0.000   0.647   0.002   0.000
  0.000   0.000  -0.002  -0.801   0.000   0.002   0.647   0.000
 -0.002   0.002   0.000   0.000  -0.798   0.000   0.000   0.645


----------------------------------------- Iteration    1(  10)  ---------------------------------------


    POTLOK:  cpu time    0.02: real time    0.02
    SETDIJ:  cpu time    0.02: real time    0.02
    EDDIAG:  cpu time    0.02: real time    0.02
  RMM-DIIS:  cpu time    0.04: real time    0.04
    ORTHCH:  cpu time    0.01: real time    0.01
       DOS:  cpu time    0.00: real time    0.00
    CHARGE:  cpu time    0.02: real time    0.02
    MIXING:  cpu time    0.00: real time    0.00
    --------------------------------------------
      LOOP:  cpu time    0.14: real time    0.14

 eigenvalue-minimisations  :   104
 total energy-change (2. order) :-0.1835306E-03  (-0.2568308E-04)
 number of electron      31.9999999 magnetization 
 augmentation part       -1.7273231 magnetization 

 Broyden mixing:
  rms(total) = 0.56655E-03    rms(broyden)= 0.56618E-03
  rms(prec ) = 0.10801E-02
  weight for this iteration     100.00

 eigenvalues of (default mixing * dielectric matrix)
  average eigenvalue GAMMA=   2.0347
  3.0943  2.6281  2.1709  0.9766  1.3037

 Free energy of the ion-electron system (eV)
  ---------------------------------------------------
  alpha Z        PSCENC =        12.68944982
  Ewald energy   TEWEN  =      -907.56762810
  -1/2 Hartree   DENC   =       -70.85000307
  -exchange  EXHF       =         0.00000000
  -V(xc)+E(xc)   XCENC  =       -72.90962184
  PAW double counting   =       307.80938310     -166.65356556
  entropy T*S    EENTRO =         0.00000000
  eigenvalues    EBANDS =        37.88286061
  atomic energy  EATOM  =       826.37398168
  ---------------------------------------------------
  free energy    TOTEN  =       -33.22514337 eV

  energy without entropy =      -33.22514337  energy(sigma->0) =      -33.22514337


--------------------------------------------------------------------------------------------------------




 average (electrostatic) potential at core
  the test charge radii are     0.9892
  (the norm of the test charge is              1.0000)
       1 -83.2242       2 -83.2264       3 -83.2244       4 -83.2236       5 -83.2240
       6 -83.2248       7 -83.2281       8 -83.2259
 
 
 
 E-fermi :   6.0567     XC(G=0):  -9.1305     alpha+bet :-11.7379


 k-point   1 :       0.0000    0.0000    0.0000
  band No.  band energies     occupation 
      1      -5.9494      2.00000
      2      -1.8733      2.00000
      3      -1.8679      2.00000
      4      -1.8666      2.00000
      5      -1.8615      2.00000
      6      -1.8592      2.00000
      7      -1.8573      2.00000
      8       3.0468      2.00000
      9       3.0493      2.00000
     10       3.0508      2.00000
     11       3.0512      2.00000
     12       3.0539      2.00000
     13       3.0562      2.00000
     14       5.9177      2.00000
     15       5.9228      2.00000
     16       5.9279      2.00000
     17       6.5896      0.00000
     18       6.5922      0.00000
     19       6.5929      0.00000
     20       6.5969      0.00000
     21       6.6010      0.00000
     22       6.6060      0.00000
     23       8.3769      0.00000
     24       8.3800      0.00000
     25       8.3830      0.00000
     26       9.0564      0.00000
     27      13.6117      0.00000
     28      13.6117      0.00000
     29      13.8271      0.00000
     30      15.8223      0.00000
     31      15.8258      0.00000
     32      15.8286      0.00000
     33      15.8300      0.00000
     34      15.8309      0.00000
     35      15.8342      0.00000
     36      16.9512      0.00000
     37      16.9539      0.00000
     38      16.9561      0.00000
     39      16.9774      0.00000
     40      16.9807      0.00000
     41      16.9830      0.00000
     42      16.9887      0.00000
     43      16.9940      0.00000
     44      16.9983      0.00000
     45      18.7242      0.00000
     46      18.7327      0.00000
     47      18.7363      0.00000
     48      18.7418      0.00000


--------------------------------------------------------------------------------------------------------


 soft charge-density along one line, spin component           1
         0         1         2         3         4         5         6         7         8         9
 total charge-density along one line
 
 pseudopotential strength for first ion, spin component:           1
 18.597  -0.001   0.000   0.000   0.000   0.000   0.000   0.000
 -0.001   0.006   0.000   0.000   0.000   0.000   0.000   0.000
  0.000   0.000   4.224   0.000   0.000  -0.005   0.000   0.000
  0.000   0.000   0.000   4.224   0.000   0.000  -0.005   0.000
  0.000   0.000   0.000   0.000   4.224   0.000   0.000  -0.005
  0.000   0.000  -0.005   0.000   0.000   0.005   0.000   0.000
  0.000   0.000   0.000  -0.005   0.000   0.000   0.005   0.000
  0.000   0.000   0.000   0.000  -0.005   0.000   0.000   0.005
 total augmentation occupancy for first ion, spin component:           1
  1.320  -1.086   0.001   0.000   0.002   0.000   0.000  -0.002
 -1.086   1.011   0.001   0.000   0.000   0.000   0.000   0.002
  0.001   0.001   1.124   0.001   0.000  -0.801  -0.002   0.000
  0.000   0.000   0.001   1.123   0.000  -0.002  -0.801   0.000
  0.002   0.000   0.000   0.000   1.120   0.000   0.000  -0.799
  0.000   0.000  -0.801  -0.002   0.000   0.648   0.002   0.000
  0.000   0.000  -0.002  -0.801   0.000   0.002   0.648   0.000
 -0.002   0.002   0.000   0.000  -0.799   0.000   0.000   0.646


----------------------------------------- Iteration    1(  11)  ---------------------------------------


    POTLOK:  cpu time    0.02: real time    0.02
    SETDIJ:  cpu time    0.02: real time    0.02
    EDDIAG:  cpu time    0.02: real time    0.02
  RMM-DIIS:  cpu time    0.04: real time    0.04
    ORTHCH:  cpu time    0.01: real time    0.01
       DOS:  cpu time    0.00: real time    0.00
    CHARGE:  cpu time    0.02: real time    0.02
    MIXING:  cpu time    0.00: real time    0.00
    --------------------------------------------
      LOOP:  cpu time    0.14: real time    0.14

 eigenvalue-minimisations  :   112
 total energy-change (2. order) : 0.4078180E-05  (-0.4344487E-06)
 number of electron      31.9999999 magnetization 
 augmentation part       -1.7274347 magnetization 

 Broyden mixing:
  rms(total) = 0.15118E-03    rms(broyden)= 0.15113E-03
  rms(prec ) = 0.29099E-03
  weight for this iteration     100.00

 eigenvalues of (default mixing * dielectric matrix)
  average eigenvalue GAMMA=   1.9787
  3.2051  2.7021  2.1048  1.9286  0.9657  0.9657

 Free energy of the ion-electron system (eV)
  ---------------------------------------------------
  alpha Z        PSCENC =        12.68944982
  Ewald energy   TEWEN  =      -907.56762810
  -1/2 Hartree   DENC   =       -70.82836064
  -exchange  EXHF       =         0.00000000
  -V(xc)+E(xc)   XCENC  =       -72.91085500
  PAW double counting   =       307.73516218     -166.57636833
  entropy T*S    EENTRO =         0.00000000
  eigenvalues    EBANDS =        37.85947911
  atomic energy  EATOM  =       826.37398168
  ---------------------------------------------------
  free energy    TOTEN  =       -33.22513929 eV

  energy without entropy =      -33.22513929  energy(sigma->0) =      -33.22513929


--------------------------------------------------------------------------------------------------------




 average (electrostatic) potential at core
  the test charge radii are     0.9892
  (the norm of the test charge is              1.0000)
       1 -83.2265       2 -83.2292       3 -83.2268       4 -83.2257       5 -83.2263
       6 -83.2273       7 -83.2313       8 -83.2286
 
 
 
 E-fermi :   6.0560     XC(G=0):  -9.1314     alpha+bet :-11.7379


 k-point   1 :       0.0000    0.0000    0.0000
  band No.  band energies     occupation 
      1      -5.9501      2.00000
      2      -1.8742      2.00000
      3      -1.8687      2.00000
      4      -1.8674      2.00000
      5      -1.8622      2.00000
      6      -1.8599      2.00000
      7      -1.8579      2.00000
      8       3.0461      2.00000
      9       3.0486      2.00000
     10       3.0501      2.00000
     11       3.0506      2.00000
     12       3.0533      2.00000
     13       3.0556      2.00000
     14       5.9169      2.00000
     15       5.9220      2.00000
     16       5.9270      2.00000
     17       6.5887      0.00000
     18       6.5913      0.00000
     19       6.5920      0.00000
     20       6.5960      0.00000
     21       6.6001      0.00000
     22       6.6051      0.00000
     23       8.3765      0.00000
     24       8.3795      0.00000
     25       8.3825      0.00000
     26       9.0553      0.00000
     27      13.6114      0.00000
     28      13.6115      0.00000
     29      13.8250      0.00000
     30      15.8216      0.00000
     31      15.8251      0.00000
     32      15.8278      0.00000
     33      15.8293      0.00000
     34      15.8301      0.00000
     35      15.8334      0.00000
     36      16.9506      0.00000
     37      16.9533      0.00000
     38      16.9554      0.00000
     39      16.9766      0.00000
     40      16.9799      0.00000
     41      16.9822      0.00000
     42      16.9880      0.00000
     43      16.9934      0.00000
     44      16.9977      0.00000
     45      18.7258      0.00000
     46      18.7325      0.00000
     47      18.7355      0.00000
     48      18.7412      0.00000


--------------------------------------------------------------------------------------------------------


 soft charge-density along one line, spin component           1
         0         1         2         3         4         5         6         7         8         9
 total charge-density along one line
 
 pseudopotential strength for first ion, spin component:           1
 18.597  -0.001   0.000   0.000   0.000   0.000   0.000   0.000
 -0.001   0.006   0.000   0.000   0.000   0.000   0.000   0.000
  0.000   0.000   4.224   0.000   0.000  -0.005   0.000   0.000
  0.000   0.000   0.000   4.224   0.000   0.000  -0.005   0.000
  0.000   0.000   0.000   0.000   4.224   0.000   0.000  -0.005
  0.000   0.000  -0.005   0.000   0.000   0.005   0.000   0.000
  0.000   0.000   0.000  -0.005   0.000   0.000   0.005   0.000
  0.000   0.000   0.000   0.000  -0.005   0.000   0.000   0.005
 total augmentation occupancy for first ion, spin component:           1
  1.320  -1.085   0.001   0.000   0.002   0.000   0.000  -0.002
 -1.085   1.010   0.001   0.000   0.000   0.000   0.000   0.002
  0.001   0.001   1.124   0.001   0.000  -0.801  -0.002   0.000
  0.000   0.000   0.001   1.123   0.000  -0.002  -0.801   0.000
  0.002   0.000   0.000   0.000   1.120   0.000   0.000  -0.799
  0.000   0.000  -0.801  -0.002   0.000   0.648   0.002   0.000
  0.000   0.000  -0.002  -0.801   0.000   0.002   0.648   0.000
 -0.002   0.002   0.000   0.000  -0.799   0.000   0.000   0.646


----------------------------------------- Iteration    1(  12)  ---------------------------------------


    POTLOK:  cpu time    0.02: real time    0.02
    SETDIJ:  cpu time    0.02: real time    0.02
    EDDIAG:  cpu time    0.02: real time    0.02
  RMM-DIIS:  cpu time    0.03: real time    0.03
    ORTHCH:  cpu time    0.01: real time    0.01
       DOS:  cpu time    0.00: real time    0.00
    CHARGE:  cpu time    0.02: real time    0.02
    MIXING:  cpu time    0.00: real time    0.00
    --------------------------------------------
      LOOP:  cpu time    0.12: real time    0.13

 eigenvalue-minimisations  :   127
 total energy-change (2. order) :-0.5166704E-06  (-0.4655298E-07)
 number of electron      31.9999999 magnetization 
 augmentation part       -1.7274243 magnetization 

 Broyden mixing:
  rms(total) = 0.58905E-04    rms(broyden)= 0.58878E-04
  rms(prec ) = 0.84194E-04
  weight for this iteration     100.00

 eigenvalues of (default mixing * dielectric matrix)
  average eigenvalue GAMMA=   1.9918
  3.1795  2.7293  2.4762  2.0915  1.5062  0.9952  0.9648

 Free energy of the ion-electron system (eV)
  ---------------------------------------------------
  alpha Z        PSCENC =        12.68944982
  Ewald energy   TEWEN  =      -907.56762810
  -1/2 Hartree   DENC   =       -70.83238631
  -exchange  EXHF       =         0.00000000
  -V(xc)+E(xc)   XCENC  =       -72.91080059
  PAW double counting   =       307.74082016     -166.58214788
  entropy T*S    EENTRO =         0.00000000
  eigenvalues    EBANDS =        37.86357142
  atomic energy  EATOM  =       826.37398168
  ---------------------------------------------------
  free energy    TOTEN  =       -33.22513981 eV

  energy without entropy =      -33.22513981  energy(sigma->0) =      -33.22513981


--------------------------------------------------------------------------------------------------------




 average (electrostatic) potential at core
  the test charge radii are     0.9892
  (the norm of the test charge is              1.0000)
       1 -83.2260       2 -83.2288       3 -83.2263       4 -83.2252       5 -83.2258
       6 -83.2268       7 -83.2309       8 -83.2281
 
 
 
 E-fermi :   6.0564     XC(G=0):  -9.1311     alpha+bet :-11.7379


 k-point   1 :       0.0000    0.0000    0.0000
  band No.  band energies     occupation 
      1      -5.9500      2.00000
      2      -1.8741      2.00000
      3      -1.8686      2.00000
      4      -1.8673      2.00000
      5      -1.8620      2.00000
      6      -1.8597      2.00000
      7      -1.8577      2.00000
      8       3.0462      2.00000
      9       3.0487      2.00000
     10       3.0502      2.00000
     11       3.0507      2.00000
     12       3.0534      2.00000
[...]
    LRDIIS:  cpu time    0.02: real time    0.02
    LRDIAG:  cpu time    0.01: real time    0.01
    MIXING:  cpu time    0.00: real time    0.00
    --------------------------------------------
      LOOP:  cpu time    0.16: real time    0.16

 Broyden mixing:
  rms(total) = 0.12473E-01    rms(broyden)= 0.12471E-01
  rms(prec ) = 0.21623E-01
  weight for this iteration     100.00

 eigenvalues of (default mixing * dielectric matrix)
  average eigenvalue GAMMA=   2.0474
  2.5817  1.5529  2.0077

 Free energy of the ion-electron system (eV)
  ---------------------------------------------------
  -1/2 Hartree   DENC   =        -4.58201611
  -V(xc)+E(xc)   XCENC  =         0.93855115
  PAW double counting   =         3.11624416       -3.16582619
  entropy T*S    EENTRO =         0.00000000
  eigenvalues    EBANDS =       -24.49006312
  ---------------------------------------------------
  free energy    TOTEN  =       -28.18311011 eV

  energy without entropy =      -28.18311011


----------------------------------------- Iteration    3(   6)  ---------------------------------------


   POT+DIJ:  cpu time    0.08: real time    0.08
    HAMIL1:  cpu time    0.00: real time    0.01
    LRDIAG:  cpu time    0.01: real time    0.01
    LRDIIS:  cpu time    0.02: real time    0.02
    LRDIAG:  cpu time    0.01: real time    0.01
    MIXING:  cpu time    0.00: real time    0.00
    --------------------------------------------
      LOOP:  cpu time    0.16: real time    0.16

 Broyden mixing:
  rms(total) = 0.63931E-02    rms(broyden)= 0.63929E-02
  rms(prec ) = 0.10923E-01
  weight for this iteration     100.00

 eigenvalues of (default mixing * dielectric matrix)
  average eigenvalue GAMMA=   2.0780
  3.0469  2.4875  1.1199  1.6577

 Free energy of the ion-electron system (eV)
  ---------------------------------------------------
  -1/2 Hartree   DENC   =        -4.61290772
  -V(xc)+E(xc)   XCENC  =         0.94995037
  PAW double counting   =         3.09653831       -3.14583891
  entropy T*S    EENTRO =         0.00000000
  eigenvalues    EBANDS =       -24.52169945
  ---------------------------------------------------
  free energy    TOTEN  =       -28.23395739 eV

  energy without entropy =      -28.23395739


----------------------------------------- Iteration    3(   7)  ---------------------------------------


   POT+DIJ:  cpu time    0.08: real time    0.08
    HAMIL1:  cpu time    0.01: real time    0.01
    LRDIAG:  cpu time    0.01: real time    0.01
    LRDIIS:  cpu time    0.02: real time    0.02
    LRDIAG:  cpu time    0.01: real time    0.01
    MIXING:  cpu time    0.00: real time    0.00
    --------------------------------------------
      LOOP:  cpu time    0.16: real time    0.16

 Broyden mixing:
  rms(total) = 0.51631E-03    rms(broyden)= 0.51531E-03
  rms(prec ) = 0.87690E-03
  weight for this iteration     100.00

 eigenvalues of (default mixing * dielectric matrix)
  average eigenvalue GAMMA=   2.0185
  3.1022  2.3444  1.1147  1.8865  1.6445

 Free energy of the ion-electron system (eV)
  ---------------------------------------------------
  -1/2 Hartree   DENC   =        -4.62247474
  -V(xc)+E(xc)   XCENC  =         0.95675616
  PAW double counting   =         3.06245608       -3.11124529
  entropy T*S    EENTRO =         0.00000000
  eigenvalues    EBANDS =       -24.55513107
  ---------------------------------------------------
  free energy    TOTEN  =       -28.26963886 eV

  energy without entropy =      -28.26963886


----------------------------------------- Iteration    3(   8)  ---------------------------------------


   POT+DIJ:  cpu time    0.08: real time    0.08
    HAMIL1:  cpu time    0.00: real time    0.01
    LRDIAG:  cpu time    0.01: real time    0.01
    LRDIIS:  cpu time    0.02: real time    0.02
    LRDIAG:  cpu time    0.01: real time    0.01
    MIXING:  cpu time    0.00: real time    0.00
    --------------------------------------------
      LOOP:  cpu time    0.16: real time    0.16

 Broyden mixing:
  rms(total) = 0.27895E-03    rms(broyden)= 0.27888E-03
  rms(prec ) = 0.40342E-03
  weight for this iteration     100.00

 eigenvalues of (default mixing * dielectric matrix)
  average eigenvalue GAMMA=   1.9320
  3.0914  2.4749  2.1909  1.6672  1.1090  1.0584

 Free energy of the ion-electron system (eV)
  ---------------------------------------------------
  -1/2 Hartree   DENC   =        -4.62550147
  -V(xc)+E(xc)   XCENC  =         0.95750043
  PAW double counting   =         3.06686066       -3.11572316
  entropy T*S    EENTRO =         0.00000000
  eigenvalues    EBANDS =       -24.55565805
  ---------------------------------------------------
  free energy    TOTEN  =       -28.27252158 eV

  energy without entropy =      -28.27252158


----------------------------------------- Iteration    3(   9)  ---------------------------------------


   POT+DIJ:  cpu time    0.08: real time    0.08
    HAMIL1:  cpu time    0.00: real time    0.01
    LRDIAG:  cpu time    0.01: real time    0.01
    LRDIIS:  cpu time    0.02: real time    0.02
    LRDIAG:  cpu time    0.01: real time    0.01
    MIXING:  cpu time    0.00: real time    0.00
    --------------------------------------------
      LOOP:  cpu time    0.16: real time    0.16

 Broyden mixing:
  rms(total) = 0.77388E-04    rms(broyden)= 0.77365E-04
  rms(prec ) = 0.12116E-03
  weight for this iteration     100.00

 eigenvalues of (default mixing * dielectric matrix)
  average eigenvalue GAMMA=   1.8873
  3.1816  2.7475  2.4161  1.6729  1.2103  1.0898  0.8931

 Free energy of the ion-electron system (eV)
  ---------------------------------------------------
  -1/2 Hartree   DENC   =        -4.62527191
  -V(xc)+E(xc)   XCENC  =         0.95745044
  PAW double counting   =         3.06961523       -3.11852499
  entropy T*S    EENTRO =         0.00000000
  eigenvalues    EBANDS =       -24.55589215
  ---------------------------------------------------
  free energy    TOTEN  =       -28.27262339 eV

  energy without entropy =      -28.27262339


----------------------------------------- Iteration    3(  10)  ---------------------------------------


   POT+DIJ:  cpu time    0.08: real time    0.09
    HAMIL1:  cpu time    0.01: real time    0.01
    LRDIAG:  cpu time    0.01: real time    0.01
    LRDIIS:  cpu time    0.02: real time    0.02
    LRDIAG:  cpu time    0.01: real time    0.01
    MIXING:  cpu time    0.00: real time    0.00
    --------------------------------------------
      LOOP:  cpu time    0.16: real time    0.17

 Broyden mixing:
  rms(total) = 0.11015E-04    rms(broyden)= 0.11002E-04
  rms(prec ) = 0.19713E-04
  weight for this iteration     100.00

 eigenvalues of (default mixing * dielectric matrix)
  average eigenvalue GAMMA=   1.8452
  3.1958  2.7744  2.4461  1.6725  1.5241  1.0001  1.1193  1.0295

 Free energy of the ion-electron system (eV)
  ---------------------------------------------------
  -1/2 Hartree   DENC   =        -4.62534332
  -V(xc)+E(xc)   XCENC  =         0.95748862
  PAW double counting   =         3.07044771       -3.11937204
  entropy T*S    EENTRO =         0.00000000
  eigenvalues    EBANDS =       -24.55611844
  ---------------------------------------------------
  free energy    TOTEN  =       -28.27289748 eV

  energy without entropy =      -28.27289748


----------------------------------------- Iteration    3(  11)  ---------------------------------------


   POT+DIJ:  cpu time    0.08: real time    0.08
    HAMIL1:  cpu time    0.00: real time    0.01
    LRDIAG:  cpu time    0.01: real time    0.01
    LRDIIS:  cpu time    0.02: real time    0.02
    LRDIAG:  cpu time    0.01: real time    0.01
    MIXING:  cpu time    0.00: real time    0.00
    --------------------------------------------
      LOOP:  cpu time    0.16: real time    0.16

 Broyden mixing:
  rms(total) = 0.35485E-05    rms(broyden)= 0.35462E-05
  rms(prec ) = 0.47792E-05
  weight for this iteration     100.00

 eigenvalues of (default mixing * dielectric matrix)
  average eigenvalue GAMMA=   1.8957
  3.2019  2.7672  2.4667  2.3841  1.6732  1.4494  1.0063  1.0063  1.1060

 Free energy of the ion-electron system (eV)
  ---------------------------------------------------
  -1/2 Hartree   DENC   =        -4.62534946
  -V(xc)+E(xc)   XCENC  =         0.95748726
  PAW double counting   =         3.07043792       -3.11936207
  entropy T*S    EENTRO =         0.00000000
  eigenvalues    EBANDS =       -24.55610994
  ---------------------------------------------------
  free energy    TOTEN  =       -28.27289629 eV

  energy without entropy =      -28.27289629


----------------------------------------- Iteration    3(  12)  ---------------------------------------


   POT+DIJ:  cpu time    0.08: real time    0.08
    HAMIL1:  cpu time    0.00: real time    0.01
    LRDIAG:  cpu time    0.01: real time    0.01
    LRDIIS:  cpu time    0.02: real time    0.02
    LRDIAG:  cpu time    0.01: real time    0.01
    MIXING:  cpu time    0.00: real time    0.00
    --------------------------------------------
      LOOP:  cpu time    0.16: real time    0.16

 Broyden mixing:
  rms(total) = 0.88062E-06    rms(broyden)= 0.88020E-06
  rms(prec ) = 0.13723E-05
  weight for this iteration     100.00

 eigenvalues of (default mixing * dielectric matrix)
  average eigenvalue GAMMA=   1.8368
  3.2057  2.8255  2.5002  2.4596  1.6704  1.0084  1.0084  1.1019  1.2940  1.2940

 Free energy of the ion-electron system (eV)
  ---------------------------------------------------
  -1/2 Hartree   DENC   =        -4.62535140
  -V(xc)+E(xc)   XCENC  =         0.95748733
  PAW double counting   =         3.07035207       -3.11927475
  entropy T*S    EENTRO =         0.00000000
  eigenvalues    EBANDS =       -24.55611036
  ---------------------------------------------------
  free energy    TOTEN  =       -28.27289712 eV

  energy without entropy =      -28.27289712


------------------------ aborting loop because EDIFF is reached ----------------------------------------


 change of polarisation eV/A/(eV/A) component  3 :     0.002    -0.125    50.511
 dielectric tensor                  component  3 :     0.003    -0.138    56.845


--------------------------------------------------------------------------------------------------------


    FORLOC:  cpu time    0.00: real time    0.00
    FORNL :  cpu time    0.09: real time    0.09
    STRESS:  cpu time    0.29: real time    0.30
    FORCOR:  cpu time    0.02: real time    0.02
    FORLOC:  cpu time    0.00: real time    0.00
    FORNL :  cpu time    0.10: real time    0.10
    STRESS:  cpu time    0.30: real time    0.30
    FORCOR:  cpu time    0.02: real time    0.02
    FORNLD:  cpu time    0.11: real time    0.17

 PIEZOELECTRIC TENSOR FIELD DIRECTION 3  (e Angst)
 -----------------------------------------------------------------------------
    -0.00137 -0.00271  0.00143           (  0.00001  0.00001  0.00008)
    -0.00271  0.00530  0.00559           (  0.00001  0.00002  0.00013)
     0.00143  0.00559  0.00320           (  0.00008  0.00013 -0.00005)

 PIEZOELECTRIC TENSOR FIELD DIRECTION 3  (C/m^2)
 -----------------------------------------------------------------------------
    -0.00013 -0.00027  0.00014
    -0.00027  0.00052  0.00055
     0.00014  0.00055  0.00031


      POSITION         DIRECTION 3           BORN EFFECTIVE CHARGE    (rigid.aug.   ionic)
 -----------------------------------------------------------------------------------------
      0.00326      0.00001      0.00156     0.03502  0.00261 -5.81577 (  0.21592  4.00000)
      1.36751      1.36906      1.36891     0.02696 -0.04832 -5.75259 (  0.21594  4.00000)
      2.73656      2.73641      0.00033    -0.05393  0.04434 -5.80583 (  0.21592  4.00000)
      4.10391      4.10283      1.37095     0.01075  0.07194 -5.80942 (  0.21591  4.00000)
      2.73533      0.00345      2.73859    -0.03607 -0.03860 -5.78454 (  0.21591  4.00000)
      4.10595      1.37109      4.10232    -0.02629 -0.06516 -5.78177 (  0.21592  4.00000)
      0.00359      2.73482      2.73422     0.05476  0.00662 -5.69793 (  0.21596  4.00000)
      1.36732      4.10172      4.10289    -0.01184  0.05863 -5.75588 (  0.21593  4.00000)
 -----------------------------------------------------------------------------------------
    total drift (improves with k-points):  -0.00066  0.03205-46.20373




--------------------------------------------------------------------------------------------------------


  LATTYP: Found a simple cubic cell.
 ALAT       =     5.4700000000
  
  Lattice vectors:
  
 A1 = (   5.4700000000,   0.0000000000,   0.0000000000)
 A2 = (   0.0000000000,   5.4700000000,   0.0000000000)
 A3 = (   0.0000000000,   0.0000000000,   5.4700000000)


Analysis of symmetry for initial positions (statically):
=====================================================================
 Subroutine PRICEL returns:
 Original cell was already a primitive cell.
 

 Routine SETGRP: Setting up the symmetry group for a 
 simple cubic supercell.


 Subroutine GETGRP returns: Found  1 space group operations
 (whereof  1 operations were pure point group operations)
 out of a pool of 48 trial point group operations.


The static configuration has the point symmetry C_1 .


Analysis of symmetry for dynamics (positions and initial velocities):
=====================================================================
 Subroutine PRICEL returns:
 Original cell was already a primitive cell.
 

 Routine SETGRP: Setting up the symmetry group for a 
 simple cubic supercell.


 Subroutine GETGRP returns: Found  1 space group operations
 (whereof  1 operations were pure point group operations)
 out of a pool of 48 trial point group operations.


The dynamic configuration has the point symmetry C_1 .


 MACROSCOPIC STATIC DIELECTRIC TENSOR (including local field effects in DFT)
 ------------------------------------------------------
          56.849298     0.016358     0.002666
           0.016357    56.848793    -0.137793
           0.002668    -0.137795    56.845183
 ------------------------------------------------------



--------------------------------------------------------------------------------------------------------


  LATTYP: Found a simple cubic cell.
 ALAT       =     5.4700000000
  
  Lattice vectors:
  
 A1 = (   5.4700000000,   0.0000000000,   0.0000000000)
 A2 = (   0.0000000000,   5.4700000000,   0.0000000000)
 A3 = (   0.0000000000,   0.0000000000,   5.4700000000)


Analysis of symmetry for initial positions (statically):
=====================================================================
 Subroutine PRICEL returns:
 Original cell was already a primitive cell.
 

 Routine SETGRP: Setting up the symmetry group for a 
 simple cubic supercell.


 Subroutine GETGRP returns: Found  1 space group operations
 (whereof  1 operations were pure point group operations)
 out of a pool of 48 trial point group operations.


The static configuration has the point symmetry C_1 .


Analysis of symmetry for dynamics (positions and initial velocities):
=====================================================================
 Subroutine PRICEL returns:
 Original cell was already a primitive cell.
 

 Routine SETGRP: Setting up the symmetry group for a 
 simple cubic supercell.


 Subroutine GETGRP returns: Found  1 space group operations
 (whereof  1 operations were pure point group operations)
 out of a pool of 48 trial point group operations.


The dynamic configuration has the point symmetry C_1 .
 
 KPOINTS: Automatic mesh                          

Automatic generation of k-mesh.
Space group operators:
 irot       det(A)        alpha          n_x          n_y          n_z        tau_x        tau_y        tau_z
    1     1.000000     0.000001     1.000000     0.000000     0.000000     0.000000     0.000000     0.000000
 
 Subroutine IBZKPT returns following result:
 ===========================================
 
 Found      1 irreducible k-points:
 
 Following reciprocal coordinates:
            Coordinates               Weight
  0.000000  0.000000  0.000000      1.000000
 
 Following cartesian coordinates:
            Coordinates               Weight
  0.000000  0.000000  0.000000      1.000000
 


--------------------------------------------------------------------------------------------------------




 MACROSCOPIC STATIC DIELECTRIC TENSOR (including local field effects in DFT)
 ------------------------------------------------------
          56.849298     0.016358     0.002666
           0.016357    56.848793    -0.137793
           0.002668    -0.137795    56.845183
 ------------------------------------------------------


 PIEZOELECTRIC TENSOR  for field in x, y, z        (e  Angst)
          XX          YY          ZZ          XY          YZ          ZX
  --------------------------------------------------------------------------------
  x    -0.01074     0.00300     0.00401     0.00312     0.00284    -0.00166
  y     0.00732    -0.00162    -0.00180    -0.00048     0.00589    -0.00140
  z    -0.00137     0.00530     0.00320    -0.00271     0.00559     0.00143

 PIEZOELECTRIC TENSOR  for field in x, y, z        (C/m^2)
          XX          YY          ZZ          XY          YZ          ZX
  --------------------------------------------------------------------------------
  x    -0.00105     0.00029     0.00039     0.00031     0.00028    -0.00016
  y     0.00072    -0.00016    -0.00018    -0.00005     0.00058    -0.00014
  z    -0.00013     0.00052     0.00031    -0.00027     0.00055     0.00014
 
 BORN EFFECTIVE CHARGES (in e, cummulative output)
 -------------------------------------------------
 ion    1
    1    -5.78043    -0.05375    -0.05588
    2     0.04646    -5.81788    -0.01857
    3     0.03502     0.00261    -5.81577
 ion    2
    1    -5.73446    -0.03670    -0.01342
    2     0.07837    -5.74038     0.03082
    3     0.02696    -0.04832    -5.75259
 ion    3
    1    -5.80927     0.05259     0.04842
    2    -0.04492    -5.77276    -0.02540
    3    -0.05393     0.04434    -5.80583
 ion    4
    1    -5.82568     0.03491    -0.04001
    2    -0.08182    -5.81690    -0.01269
    3     0.01075     0.07194    -5.80942
 ion    5
    1    -5.81994    -0.02971     0.05716
    2     0.06153    -5.82121     0.03027
    3    -0.03607    -0.03860    -5.78454
 ion    6
    1    -5.80166     0.01558     0.01234
    2    -0.04244    -5.77607     0.02100
    3    -0.02629    -0.06516    -5.78177
 ion    7
    1    -5.69576     0.02807    -0.04785
    2    -0.06117    -5.69627     0.02833
    3     0.05476     0.00662    -5.69793
 ion    8
    1    -5.74354    -0.01558     0.03811
    2     0.04059    -5.76955    -0.02155
    3    -0.01184     0.05863    -5.75588


--------------------------------------------------------------------------------------------------------


     LOOP+:  cpu time   19.19: real time   19.62
    4ORBIT:  cpu time    0.00: real time    0.00

 total amount of memory used by VASP on root node    32224. kBytes
========================================================================

   base      :      30000. kBytes
   nonl-proj :        202. kBytes
   fftplans  :        782. kBytes
   grid      :       1198. kBytes
   one-center:         24. kBytes
   wavefun   :         18. kBytes
 
  
  
 General timing and accounting informations for this job:
 ========================================================
  
                  Total CPU time used (sec):       20.348
                            User time (sec):       16.170
                          System time (sec):        4.178
                         Elapsed time (sec):       22.857
  
                   Maximum memory used (kb):       76420.
                   Average memory used (kb):           0.
  
                          Minor page faults:       195866
                          Major page faults:            0
                 Voluntary context switches:         1395
