 vasp.5.3.3 18Dez12 (build Jan  9 2014 12:00:49) complex                        
  
 executed on             LinuxIFC date 2014.01.29  10:13:16
 running on   48 total cores
 distrk:  each k-point on   48 cores,    1 groups
 distr:  one band on NCORES_PER_BAND=   1 cores,   48 groups


--------------------------------------------------------------------------------------------------------


 INCAR:
 POTCAR:    PAW Si                                

 ----------------------------------------------------------------------------- 
|                                                                             |
|           W    W    AA    RRRRR   N    N  II  N    N   GGGG   !!!           |
|           W    W   A  A   R    R  NN   N  II  NN   N  G    G  !!!           |
|           W    W  A    A  R    R  N N  N  II  N N  N  G       !!!           |
|           W WW W  AAAAAA  RRRRR   N  N N  II  N  N N  G  GGG   !            |
|           WW  WW  A    A  R   R   N   NN  II  N   NN  G    G                |
|           W    W  A    A  R    R  N    N  II  N    N   GGGG   !!!           |
|                                                                             |
|      For optimal performance we recommend that you set                      |
|        NPAR = 4 - approx SQRT( number of cores)                             |
|      (number of cores/NPAR must be integer)                                 |
|      This setting will greatly improve the performance of VASP for DFT.     |
|      The default NPAR=number of cores might be grossly inefficient          |
|      on modern multi-core architectures or massively parallel machines.     |
|      Do your own testing.                                                   |
|      Unfortunately you need to use the default for hybrid, GW and RPA       |
|      calculations.                                                          |
|                                                                             |
 ----------------------------------------------------------------------------- 

 POTCAR:    PAW Si                                
   VRHFIN =Si: s2p2                                                             
   LEXCH  = 91                                                                  
   EATOM  =   103.3076 eV,    7.5929 Ry                                         
                                                                                
   TITEL  = PAW Si                                                              
   LULTRA =        F    use ultrasoft PP ?                                      
   IUNSCR =        1    unscreen: 0-lin 1-nonlin 2-no                           
   RPACOR =    1.500    partial core radius                                     
   POMASS =   28.085; ZVAL   =    4.000    mass and valenz                      
   RCORE  =    1.900    outmost cutoff radius                                   
   RWIGS  =    2.480; RWIGS  =    1.312    wigner-seitz radius (au A)           
   ENMAX  =  245.435; ENMIN  =  184.076 eV                                      
   ICORE  =        2    local potential                                         
   LCOR   =        T    correct aug charges                                     
   LPAW   =        T    paw PP                                                  
   EAUG   =  322.069                                                            
   DEXC   =    -.001                                                            
   RMAX   =    2.943    core radius for proj-oper                               
   RAUG   =    1.300    factor for augmentation sphere                          
   RDEP   =    1.993    core radius for depl-charge                             
   QCUT   =   -4.247; QGAM   =    8.494    optimization parameters              
                                                                                
   Description                                                                  
     l     E      TYP  RCUT    TYP  RCUT                                        
     0   .000     23  1.900                                                     
     0   .000     23  1.900                                                     
     1   .000     23  1.900                                                     
     1   .000     23  1.900                                                     
     2   .000      7  1.900                                                     
  local pseudopotential read in
  partial core-charges read in
  atomic valenz-charges read in
  non local Contribution for L=           0  read in
    real space projection operators read in
  non local Contribution for L=           0  read in
    real space projection operators read in
  non local Contribution for L=           1  read in
    real space projection operators read in
  non local Contribution for L=           1  read in
    real space projection operators read in
    PAW grid and wavefunctions read in
 
   number of l-projection  operators is LMAX  =           4
   number of lm-projection operators is LMMAX =           8
 
  PAW Si                                :
 energy of atom  1       EATOM= -103.3076
 kinetic energy error for atom=    0.0109 (will be added to EATOM!!)
 
 
 POSCAR: OUTCAR.0023.+1.out 1.0e-02              
  positions in cartesian coordinates
  No initial velocities read in
 exchange correlation table for  LEXCH =        7
   RHO(1)=    0.500       N(1)  =     2000
   RHO(2)=  100.500       N(2)  =     4000

 VTST: version 3.0c, (01/09/14)

 CHAIN: initializing optimizer
 
 OPT: Using VASP Dynamics algorithm
 CHAIN: Read ICHAIN            0
 
 POSCAR: OUTCAR.0023.+1.out 1.0e-02              
  positions in cartesian coordinates
  No initial velocities read in
 


--------------------------------------------------------------------------------------------------------


 ion  position               nearest neighbor table
   1  0.000  1.000  0.999-   8 2.37   2 2.37   6 2.37   4 2.37
   2  0.250  0.249  0.250-   5 2.37   7 2.37   1 2.37   3 2.37
   3  0.499  0.500  1.000-   8 2.36   6 2.37   4 2.37   2 2.37
   4  0.750  0.750  0.250-   7 2.37   3 2.37   1 2.37   5 2.37
   5  0.500  1.000  0.501-   8 2.37   2 2.37   6 2.37   4 2.37
   6  0.750  0.251  0.750-   3 2.37   7 2.37   1 2.37   5 2.37
   7  0.001  0.500  0.500-   2 2.37   8 2.37   4 2.37   6 2.37
   8  0.250  0.750  0.750-   3 2.36   5 2.37   7 2.37   1 2.37
 
  LATTYP: Found a simple cubic cell.
 ALAT       =     5.4700000000
  
  Lattice vectors:
  
 A1 = (   5.4700000000,   0.0000000000,   0.0000000000)
 A2 = (   0.0000000000,   5.4700000000,   0.0000000000)
 A3 = (   0.0000000000,   0.0000000000,   5.4700000000)


Analysis of symmetry for initial positions (statically):
=====================================================================
 Subroutine PRICEL returns:
 Original cell was already a primitive cell.
 

 Routine SETGRP: Setting up the symmetry group for a 
 simple cubic supercell.


 Subroutine GETGRP returns: Found  1 space group operations
 (whereof  1 operations were pure point group operations)
 out of a pool of 48 trial point group operations.


The static configuration has the point symmetry C_1 .


Analysis of symmetry for dynamics (positions and initial velocities):
=====================================================================
 Subroutine PRICEL returns:
 Original cell was already a primitive cell.
 

 Routine SETGRP: Setting up the symmetry group for a 
 simple cubic supercell.


 Subroutine GETGRP returns: Found  1 space group operations
 (whereof  1 operations were pure point group operations)
 out of a pool of 48 trial point group operations.


The dynamic configuration has the point symmetry C_1 .


 irot  :   1
 --------------------------------------------------------------------
 isymop:   1   0   0
           0   1   0
           0   0   1

 gtrans:     0.0000000     0.0000000     0.0000000

 ptrans:     0.0000000     0.0000000     0.0000000
 rotmap:
 (   1->   1)  (   2->   2)  (   3->   3)  (   4->   4)  (   5->   5) 
 (   6->   6)  (   7->   7)  (   8->   8) 
 
 
 KPOINTS: Automatic mesh                          

Automatic generation of k-mesh.
Space group operators:
 irot       det(A)        alpha          n_x          n_y          n_z        tau_x        tau_y        tau_z
    1     1.000000     0.000001     1.000000     0.000000     0.000000     0.000000     0.000000     0.000000
 
 Subroutine IBZKPT returns following result:
 ===========================================
 
 Found      1 irreducible k-points:
 
 Following reciprocal coordinates:
            Coordinates               Weight
  0.000000  0.000000  0.000000      1.000000
 
 Following cartesian coordinates:
            Coordinates               Weight
  0.000000  0.000000  0.000000      1.000000
 
 
 Subroutine IBZKPT_HF returns following result:
 ==============================================
 
 Found      1 k-points in 1st BZ
 the following      1 k-points will be used (e.g. in the exchange kernel)
 Following reciprocal coordinates:   # in IRBZ
  0.000000  0.000000  0.000000       1 t-inv F


--------------------------------------------------------------------------------------------------------




 Dimension of arrays:
   k-points           NKPTS =      1   k-points in BZ     NKDIM =      1   number of bands    NBANDS=     48
   number of dos      NEDOS =    301   number of ions     NIONS =      8
   non local maximal  LDIM  =      4   non local SUM 2l+1 LMDIM =      8
   total plane-waves  NPLWV =  21952
   max r-space proj   IRMAX =      1   max aug-charges    IRDMAX=  36071
   dimension x,y,z NGX =    28 NGY =   28 NGZ =   28
   dimension x,y,z NGXF=    56 NGYF=   56 NGZF=   56
   support grid    NGXF=   112 NGYF=  112 NGZF=  112
   ions per type =               8
 NGX,Y,Z   is equivalent  to a cutoff of   8.51,  8.51,  8.51 a.u.
 NGXF,Y,Z  is equivalent  to a cutoff of  17.02, 17.02, 17.02 a.u.


 I would recommend the setting:
   dimension x,y,z NGX =    19 NGY =   19 NGZ =   19
 SYSTEM =  NAPTHA04                                
 POSCAR =  OUTCAR.0023.+1.out 1.0e-02              

 Startparameter for this run:
   NWRITE =      3    write-flag & timer
   PREC   = normal    normal or accurate (medium, high low for compatibility)
   ISTART =      0    job   : 0-new  1-cont  2-samecut
   ICHARG =      2    charge: 1-file 2-atom 10-const
   ISPIN  =      1    spin polarized calculation?
   LNONCOLLINEAR =      F non collinear calculations
   LSORBIT =      F    spin-orbit coupling
   INIWAV =      1    electr: 0-lowe 1-rand  2-diag
   LASPH  =      F    aspherical Exc in radial PAW
   METAGGA=      F    non-selfconsistent MetaGGA calc.

 Electronic Relaxation 1
   ENCUT  =  200.0 eV  14.70 Ry    3.83 a.u.   6.31  6.31  6.31*2*pi/ulx,y,z
   ENINI  =  200.0     initial cutoff
   ENAUG  =  322.1 eV  augmentation charge cutoff
   NELM   =     60;   NELMIN=  2; NELMDL= -5     # of ELM steps 
   EDIFF  = 0.1E-07   stopping-criterion for ELM
   LREAL  =      F    real-space projection
   NLSPLINE    = F    spline interpolate recip. space projectors
   LCOMPAT=      F    compatible to vasp.4.4
   GGA_COMPAT  = T    GGA compatible to vasp.4.4-vasp.4.6
   LMAXPAW     = -100 max onsite density
   LMAXMIX     =    2 max onsite mixed and CHGCAR
   VOSKOWN=      0    Vosko Wilk Nusair interpolation
   ROPT   =    0.00000
 Ionic relaxation
   EDIFFG = 0.1E-06   stopping-criterion for IOM
   NSW    =      0    number of steps for IOM
   NBLOCK =      1;   KBLOCK =      1    inner block; outer block 
   IBRION =     -1    ionic relax: 0-MD 1-quasi-New 2-CG
   NFREE  =      0    steps in history (QN), initial steepest desc. (CG)
   ISIF   =      2    stress and relaxation
   IWAVPR =     10    prediction:  0-non 1-charg 2-wave 3-comb
   ISYM   =      2    0-nonsym 1-usesym 2-fastsym
   LCORR  =      T    Harris-Foulkes like correction to forces

   POTIM  = 0.5000    time-step for ionic-motion
   TEIN   =    0.0    initial temperature
   TEBEG  =    0.0;   TEEND  =   0.0 temperature during run
   SMASS  =  -3.00    Nose mass-parameter (am)
   estimated Nose-frequenzy (Omega)   =  0.10E-29 period in steps =****** mass=  -0.684E-27a.u.
   SCALEE = 1.0000    scale energy and forces
   NPACO  =    256;   APACO  = 16.0  distance and # of slots for P.C.
   PSTRESS=    0.0 pullay stress

  Mass of Ions in am
   POMASS =  28.09
  Ionic Valenz
   ZVAL   =   4.00
  Atomic Wigner-Seitz radii
   RWIGS  =  -1.00
  virtual crystal weights 
   VCA    =   1.00
   NELECT =      32.0000    total number of electrons
   NUPDOWN=      -1.0000    fix difference up-down

 DOS related values:
   EMIN   =  10.00;   EMAX   =-10.00  energy-range for DOS
   EFERMI =   0.00
   ISMEAR =     0;   SIGMA  =   0.02  broadening in eV -4-tet -1-fermi 0-gaus

 Electronic relaxation 2 (details)
   IALGO  =     68    algorithm
   LDIAG  =      T    sub-space diagonalisation (order eigenvalues)
   LSUBROT=      T    optimize rotation matrix (better conditioning)
   TURBO    =      0    0=normal 1=particle mesh
   IRESTART =      0    0=no restart 2=restart with 2 vectors
   NREBOOT  =      0    no. of reboots
   NMIN     =      0    reboot dimension
   EREF     =   0.00    reference energy to select bands
   IMIX   =      4    mixing-type and parameters
     AMIX     =   0.40;   BMIX     =  1.00
     AMIX_MAG =   1.60;   BMIX_MAG =  1.00
     AMIN     =   0.10
     WC   =   100.;   INIMIX=   1;  MIXPRE=   1;  MAXMIX= -45

 Intra band minimization:
   WEIMIN = 0.0000     energy-eigenvalue tresh-hold
   EBREAK =  0.52E-10  absolut break condition
   DEPER  =   0.30     relativ break condition  

   TIME   =   0.40     timestep for ELM

  volume/ion in A,a.u.               =      20.46       138.06
  Fermi-wavevector in a.u.,A,eV,Ry     =   0.950176  1.795573 12.283814  0.902835
  Thomas-Fermi vector in A             =   2.078528
 
 Write flags
   LWAVE  =      F    write WAVECAR
   LCHARG =      F    write CHGCAR
   LVTOT  =      F    write LOCPOT, total local potential
   LVHAR  =      F    write LOCPOT, Hartree potential only
   LELF   =      F    write electronic localiz. function (ELF)
   LORBIT =      0    0 simple, 1 ext, 2 COOP (PROOUT)


 Dipole corrections
   LMONO  =      F    monopole corrections only (constant potential shift)
   LDIPOL =      F    correct potential (dipole corrections)
   IDIPOL =      0    1-x, 2-y, 3-z, 4-all directions 
   EPSILON=  1.0000000 bulk dielectric constant

 Exchange correlation treatment:
   GGA     =    --    GGA type
   LEXCH   =     7    internal setting for exchange type
   VOSKOWN=      0    Vosko Wilk Nusair interpolation
   LHFCALC =     F    Hartree Fock is set to
   LHFONE  =     F    Hartree Fock one center treatment
   AEXX    =    0.0000 exact exchange contribution

 Linear response parameters
   LEPSILON=     T    determine dielectric tensor
   LRPA    =     F    only Hartree local field effects (RPA)
   LNABLA  =     F    use nabla operator in PAW spheres
   LVEL    =     F    velocity operator in full k-point grid
   LINTERFAST=   F  fast interpolation
   KINTER  =     0    interpolate to denser k-point grid
   CSHIFT  =0.1000    complex shift for real part using Kramers Kronig
   OMEGAMAX=  -1.0    maximum frequency
   DEG_THRESHOLD= 0.2000000E-02 threshold for treating states as degnerate
   RTIME   =    0.100 relaxation time in fs

 Orbital magnetization related:
   ORBITALMAG=     F  switch on orbital magnetization
   LCHIMAG   =     F  perturbation theory with respect to B field
   DQ        =  0.001000  dq finite difference perturbation B field



--------------------------------------------------------------------------------------------------------


 Static calculation
 charge density and potential will be updated during run
 non-spin polarized calculation
 RMM-DIIS sequential band-by-band and
  variant of blocked Davidson during initial phase
 perform sub-space diagonalisation
    before iterative eigenvector-optimisation
 modified Broyden-mixing scheme, WC =      100.0
 initial mixing is a Kerker type mixing with AMIX =  0.4000 and BMIX =      1.0000
 Hartree-type preconditioning will be used
 using additional bands           32
 reciprocal scheme for non local part
 use partial core corrections
 calculate Harris-corrections to forces 
   (improved forces if not selfconsistent)
 use gradient corrections 
 use of overlap-Matrix (Vanderbilt PP)
 Gauss-broadening in eV      SIGMA  =   0.02


--------------------------------------------------------------------------------------------------------


  energy-cutoff  :      200.00
  volume of cell :      163.67
      direct lattice vectors                 reciprocal lattice vectors
     5.470000000  0.000000000  0.000000000     0.182815356  0.000000000  0.000000000
     0.000000000  5.470000000  0.000000000     0.000000000  0.182815356  0.000000000
     0.000000000  0.000000000  5.470000000     0.000000000  0.000000000  0.182815356

  length of vectors
     5.470000000  5.470000000  5.470000000     0.182815356  0.182815356  0.182815356


 
 k-points in units of 2pi/SCALE and weight: Automatic mesh                          
   0.00000000  0.00000000  0.00000000       1.000
 
 k-points in reciprocal lattice and weights: Automatic mesh                          
   0.00000000  0.00000000  0.00000000       1.000
 
 position of ions in fractional coordinates (direct lattice) 
   0.00018124  0.99999672  0.99946614
   0.24999672  0.24946614  0.25048762
   0.49946614  0.50048762  0.99955575
   0.75048762  0.74955575  0.24991435
   0.49955575  0.99991435  0.50060150
   0.74991435  0.25060150  0.74997006
   0.00060150  0.49997006  0.49986853
   0.24997006  0.74986853  0.74993509
 
 position of ions in cartesian coordinates  (Angst):
   0.00099136  5.46998206  5.46707976
   1.36748206  1.36457976  1.37016725
   2.73207976  2.73766725  5.46756996
   4.10516725  4.10006996  1.36703149
   2.73256996  5.46953149  2.73829018
   4.10203149  1.37079018  4.10233623
   0.00329018  2.73483623  2.73428088
   1.36733623  4.10178088  4.10214497
 


--------------------------------------------------------------------------------------------------------


 k-point  1 :   0.0000 0.0000 0.0000  plane waves:    1021

 maximum and minimum number of plane-waves per node :      1021     1021

 maximum number of plane-waves:      1021
 maximum index in each direction: 
   IXMAX=    6   IYMAX=    6   IZMAX=    6
   IXMIN=   -6   IYMIN=   -6   IZMIN=   -6

 NGX is ok and might be reduce to  26
 NGY is ok and might be reduce to  26
 NGZ is ok and might be reduce to  26

 serial   3D FFT for wavefunctions
 parallel 3D FFT for charge:
    minimum data exchange during FFTs selected (reduces bandwidth)


 total amount of memory used by VASP on root node    32224. kBytes
========================================================================

   base      :      30000. kBytes
   nonl-proj :        202. kBytes
   fftplans  :        782. kBytes
   grid      :       1198. kBytes
   one-center:         24. kBytes
   wavefun   :         18. kBytes
 
 Broyden mixing: mesh for mixing (old mesh)
   NGX = 13   NGY = 13   NGZ = 13
  (NGX  = 56   NGY  = 56   NGZ  = 56)
  gives a total of   2197 points

 initial charge density was supplied:
 charge density of overlapping atoms calculated
 number of electron      32.0000000 magnetization 
 keeping initial charge density in first step


--------------------------------------------------------------------------------------------------------


 Maximum index for augmentation-charges         1782 (set IRDMAX)


--------------------------------------------------------------------------------------------------------


 First call to EWALD:  gamma=   0.324
 Maximum number of real-space cells 3x 3x 3
 Maximum number of reciprocal cells 3x 3x 3

 FEWALD executed in parallel
    FEWALD:  cpu time    0.00: real time    0.00


----------------------------------------- Iteration    1(   1)  ---------------------------------------


    POTLOK:  cpu time    0.03: real time    0.03
    SETDIJ:  cpu time    0.09: real time    0.09
     EDDAV:  cpu time    0.45: real time    0.46
       DOS:  cpu time    0.00: real time    0.00
    --------------------------------------------
      LOOP:  cpu time    0.58: real time    0.59

 eigenvalue-minimisations  :    96
 total energy-change (2. order) :-0.1016585E+02  (-0.7956178E+03)
 number of electron      32.0000000 magnetization 
 augmentation part       32.0000000 magnetization 

 Free energy of the ion-electron system (eV)
  ---------------------------------------------------
  alpha Z        PSCENC =        12.68944982
  Ewald energy   TEWEN  =      -907.56633305
  -1/2 Hartree   DENC   =       -45.63676534
  -exchange  EXHF       =         0.00000000
  -V(xc)+E(xc)   XCENC  =       -76.79671265
  PAW double counting   =       265.93453375     -123.69690146
  entropy T*S    EENTRO =        -0.00026622
  eigenvalues    EBANDS =        38.53316254
  atomic energy  EATOM  =       826.37398168
  ---------------------------------------------------
  free energy    TOTEN  =       -10.16585094 eV

  energy without entropy =      -10.16558472  energy(sigma->0) =      -10.16571783


--------------------------------------------------------------------------------------------------------




 average (electrostatic) potential at core
  the test charge radii are     0.9892
  (the norm of the test charge is              1.0000)
       1 -84.3488       2 -84.3500       3 -84.3499       4 -84.3439       5 -84.3492
       6 -84.3484       7 -84.3546       8 -84.3601
 
 
 
 E-fermi :   6.6057     XC(G=0):  -9.5533     alpha+bet :-11.7379


 k-point   1 :       0.0000    0.0000    0.0000
  band No.  band energies     occupation 
      1      -6.5895      2.00000
      2      -2.4113      2.00000
      3      -2.2476      2.00000
      4      -2.1234      2.00000
      5      -2.0272      2.00000
      6      -1.8769      2.00000
      7      -1.6807      2.00000
      8       2.7409      2.00000
      9       2.8516      2.00000
     10       2.9915      2.00000
     11       3.1623      2.00000
     12       3.3436      2.00000
     13       4.0749      2.00000
     14       6.1340      2.00000
     15       6.3607      2.00000
     16       6.5635      1.99712
     17       6.6478      0.00288
     18       6.8194      0.00000
     19       6.9071      0.00000
     20       7.1741      0.00000
     21       7.3807      0.00000
     22       8.0467      0.00000
     23       8.9840      0.00000
     24       9.3780      0.00000
     25      10.4520      0.00000
     26      11.4487      0.00000
     27      13.5069      0.00000
     28      14.7706      0.00000
     29      16.5566      0.00000
     30      16.8964      0.00000
     31      17.3577      0.00000
     32      17.5885      0.00000
     33      17.9327      0.00000
     34      18.1345      0.00000
     35      18.4996      0.00000
     36      18.8773      0.00000
     37      19.3682      0.00000
     38      19.5023      0.00000
     39      19.8654      0.00000
     40      20.2611      0.00000
     41      21.1021      0.00000
     42      21.6905      0.00000
     43      22.1768      0.00000
     44      22.7653      0.00000
     45      23.9019      0.00000
     46      24.4091      0.00000
     47      24.8204      0.00000
     48      25.8415      0.00000


--------------------------------------------------------------------------------------------------------


 soft charge-density along one line, spin component           1
         0         1         2         3         4         5         6         7         8         9
 total charge-density along one line
 
 pseudopotential strength for first ion, spin component:           1
 18.662   0.000   0.000   0.000   0.000   0.000   0.000   0.000
  0.000   0.006   0.000   0.000   0.000   0.000   0.000   0.000
  0.000   0.000   4.216   0.000   0.000  -0.004   0.000   0.000
  0.000   0.000   0.000   4.216   0.000   0.000  -0.004   0.000
  0.000   0.000   0.000   0.000   4.216   0.000   0.000  -0.004
  0.000   0.000  -0.004   0.000   0.000   0.005   0.000   0.000
  0.000   0.000   0.000  -0.004   0.000   0.000   0.005   0.000
  0.000   0.000   0.000   0.000  -0.004   0.000   0.000   0.005
 total augmentation occupancy for first ion, spin component:           1
  2.000   0.000   0.000   0.000   0.000   0.000   0.000   0.000
  0.000   0.000   0.000   0.000   0.000   0.000   0.000   0.000
  0.000   0.000   0.667   0.000   0.000   0.000   0.000   0.000
  0.000   0.000   0.000   0.667   0.000   0.000   0.000   0.000
  0.000   0.000   0.000   0.000   0.667   0.000   0.000   0.000
  0.000   0.000   0.000   0.000   0.000   0.000   0.000   0.000
  0.000   0.000   0.000   0.000   0.000   0.000   0.000   0.000
  0.000   0.000   0.000   0.000   0.000   0.000   0.000   0.000


----------------------------------------- Iteration    1(   2)  ---------------------------------------


     EDDAV:  cpu time    0.98: real time    0.98
       DOS:  cpu time    0.00: real time    0.00
    --------------------------------------------
      LOOP:  cpu time    0.99: real time    0.99

 eigenvalue-minimisations  :   144
 total energy-change (2. order) :-0.2428472E+02  (-0.2428195E+02)
 number of electron      32.0000000 magnetization 
 augmentation part       32.0000000 magnetization 

 Free energy of the ion-electron system (eV)
  ---------------------------------------------------
  alpha Z        PSCENC =        12.68944982
  Ewald energy   TEWEN  =      -907.56633305
  -1/2 Hartree   DENC   =       -45.63676534
  -exchange  EXHF       =         0.00000000
  -V(xc)+E(xc)   XCENC  =       -76.79671265
  PAW double counting   =       265.93453375     -123.69690146
  entropy T*S    EENTRO =         0.00000000
  eigenvalues    EBANDS =        14.24818034
  atomic energy  EATOM  =       826.37398168
  ---------------------------------------------------
  free energy    TOTEN  =       -34.45056693 eV

  energy without entropy =      -34.45056693  energy(sigma->0) =      -34.45056693


--------------------------------------------------------------------------------------------------------




 average (electrostatic) potential at core
  the test charge radii are     0.9892
  (the norm of the test charge is              1.0000)
       1 -84.3488       2 -84.3500       3 -84.3499       4 -84.3439       5 -84.3492
       6 -84.3484       7 -84.3546       8 -84.3601
 
 
 
 E-fermi :   5.2528     XC(G=0):  -9.5533     alpha+bet :-11.7379


 k-point   1 :       0.0000    0.0000    0.0000
  band No.  band energies     occupation 
      1      -6.6372      2.00000
      2      -2.6461      2.00000
      3      -2.6359      2.00000
      4      -2.6339      2.00000
      5      -2.6282      2.00000
      6      -2.6199      2.00000
      7      -2.6110      2.00000
      8       2.3738      2.00000
      9       2.3772      2.00000
     10       2.3811      2.00000
     11       2.3824      2.00000
     12       2.3873      2.00000
     13       2.3942      2.00000
     14       5.0637      2.00000
     15       5.0837      2.00000
     16       5.0929      2.00000
     17       6.1432      0.00000
     18       6.1499      0.00000
     19       6.1536      0.00000
     20       6.1570      0.00000
     21       6.1622      0.00000
     22       6.1739      0.00000
     23       7.8516      0.00000
     24       7.8566      0.00000
     25       7.8635      0.00000
     26       8.1266      0.00000
     27      13.2003      0.00000
     28      13.2620      0.00000
     29      13.2699      0.00000
     30      15.1000      0.00000
     31      15.1348      0.00000
     32      15.1713      0.00000
     33      15.2504      0.00000
     34      15.3141      0.00000
     35      15.6316      0.00000
     36      16.3733      0.00000
     37      16.4184      0.00000
     38      16.4524      0.00000
     39      16.5448      0.00000
     40      16.7137      0.00000
     41      16.7485      0.00000
     42      16.7726      0.00000
     43      16.8733      0.00000
     44      17.2236      0.00000
     45      17.9123      0.00000
     46      17.9524      0.00000
     47      17.9914      0.00000
     48      18.0244      0.00000


--------------------------------------------------------------------------------------------------------


 soft charge-density along one line, spin component           1
         0         1         2         3         4         5         6         7         8         9
 total charge-density along one line
 
 pseudopotential strength for first ion, spin component:           1
 18.662   0.000   0.000   0.000   0.000   0.000   0.000   0.000
  0.000   0.006   0.000   0.000   0.000   0.000   0.000   0.000
  0.000   0.000   4.216   0.000   0.000  -0.004   0.000   0.000
  0.000   0.000   0.000   4.216   0.000   0.000  -0.004   0.000
  0.000   0.000   0.000   0.000   4.216   0.000   0.000  -0.004
  0.000   0.000  -0.004   0.000   0.000   0.005   0.000   0.000
  0.000   0.000   0.000  -0.004   0.000   0.000   0.005   0.000
  0.000   0.000   0.000   0.000  -0.004   0.000   0.000   0.005
 total augmentation occupancy for first ion, spin component:           1
  2.000   0.000   0.000   0.000   0.000   0.000   0.000   0.000
  0.000   0.000   0.000   0.000   0.000   0.000   0.000   0.000
  0.000   0.000   0.667   0.000   0.000   0.000   0.000   0.000
  0.000   0.000   0.000   0.667   0.000   0.000   0.000   0.000
  0.000   0.000   0.000   0.000   0.667   0.000   0.000   0.000
  0.000   0.000   0.000   0.000   0.000   0.000   0.000   0.000
  0.000   0.000   0.000   0.000   0.000   0.000   0.000   0.000
  0.000   0.000   0.000   0.000   0.000   0.000   0.000   0.000


----------------------------------------- Iteration    1(   3)  ---------------------------------------


     EDDAV:  cpu time    0.40: real time    0.40
       DOS:  cpu time    0.00: real time    0.00
    --------------------------------------------
      LOOP:  cpu time    0.40: real time    0.41

 eigenvalue-minimisations  :    96
 total energy-change (2. order) :-0.1670162E+00  (-0.1670162E+00)
 number of electron      32.0000000 magnetization 
 augmentation part       32.0000000 magnetization 

 Free energy of the ion-electron system (eV)
  ---------------------------------------------------
  alpha Z        PSCENC =        12.68944982
  Ewald energy   TEWEN  =      -907.56633305
  -1/2 Hartree   DENC   =       -45.63676534
  -exchange  EXHF       =         0.00000000
  -V(xc)+E(xc)   XCENC  =       -76.79671265
  PAW double counting   =       265.93453375     -123.69690146
  entropy T*S    EENTRO =         0.00000000
  eigenvalues    EBANDS =        14.08116413
  atomic energy  EATOM  =       826.37398168
  ---------------------------------------------------
  free energy    TOTEN  =       -34.61758314 eV

  energy without entropy =      -34.61758314  energy(sigma->0) =      -34.61758314


--------------------------------------------------------------------------------------------------------




 average (electrostatic) potential at core
  the test charge radii are     0.9892
  (the norm of the test charge is              1.0000)
       1 -84.3488       2 -84.3500       3 -84.3499       4 -84.3439       5 -84.3492
       6 -84.3484       7 -84.3546       8 -84.3601
 
 
 
 E-fermi :   5.2225     XC(G=0):  -9.5533     alpha+bet :-11.7379


 k-point   1 :       0.0000    0.0000    0.0000
  band No.  band energies     occupation 
      1      -6.6372      2.00000
      2      -2.6486      2.00000
      3      -2.6387      2.00000
      4      -2.6357      2.00000
      5      -2.6295      2.00000
      6      -2.6216      2.00000
      7      -2.6141      2.00000
      8       2.3705      2.00000
      9       2.3729      2.00000
     10       2.3758      2.00000
     11       2.3788      2.00000
     12       2.3818      2.00000
     13       2.3860      2.00000
     14       5.0559      2.00000
     15       5.0707      2.00000
     16       5.0735      2.00000
     17       6.1394      0.00000
     18       6.1470      0.00000
     19       6.1501      0.00000
     20       6.1529      0.00000
     21       6.1601      0.00000
     22       6.1696      0.00000
     23       7.8458      0.00000
     24       7.8473      0.00000
     25       7.8556      0.00000
     26       8.1178      0.00000
     27      13.1844      0.00000
     28      13.1866      0.00000
     29      13.2693      0.00000
     30      15.0833      0.00000
     31      15.0883      0.00000
     32      15.0952      0.00000
     33      15.1132      0.00000
     34      15.1285      0.00000
     35      15.1762      0.00000
     36      16.3102      0.00000
     37      16.3223      0.00000
     38      16.3434      0.00000
     39      16.3791      0.00000
     40      16.4339      0.00000
     41      16.4803      0.00000
     42      16.7129      0.00000
     43      16.7178      0.00000
     44      16.8126      0.00000
     45      17.8841      0.00000
     46      17.8916      0.00000
     47      17.9249      0.00000
     48      17.9383      0.00000


--------------------------------------------------------------------------------------------------------


 soft charge-density along one line, spin component           1
         0         1         2         3         4         5         6         7         8         9
 total charge-density along one line
 
 pseudopotential strength for first ion, spin component:           1
 18.662   0.000   0.000   0.000   0.000   0.000   0.000   0.000
  0.000   0.006   0.000   0.000   0.000   0.000   0.000   0.000
  0.000   0.000   4.216   0.000   0.000  -0.004   0.000   0.000
  0.000   0.000   0.000   4.216   0.000   0.000  -0.004   0.000
  0.000   0.000   0.000   0.000   4.216   0.000   0.000  -0.004
  0.000   0.000  -0.004   0.000   0.000   0.005   0.000   0.000
  0.000   0.000   0.000  -0.004   0.000   0.000   0.005   0.000
  0.000   0.000   0.000   0.000  -0.004   0.000   0.000   0.005
 total augmentation occupancy for first ion, spin component:           1
  2.000   0.000   0.000   0.000   0.000   0.000   0.000   0.000
  0.000   0.000   0.000   0.000   0.000   0.000   0.000   0.000
  0.000   0.000   0.667   0.000   0.000   0.000   0.000   0.000
  0.000   0.000   0.000   0.667   0.000   0.000   0.000   0.000
  0.000   0.000   0.000   0.000   0.667   0.000   0.000   0.000
  0.000   0.000   0.000   0.000   0.000   0.000   0.000   0.000
  0.000   0.000   0.000   0.000   0.000   0.000   0.000   0.000
  0.000   0.000   0.000   0.000   0.000   0.000   0.000   0.000


----------------------------------------- Iteration    1(   4)  ---------------------------------------


     EDDAV:  cpu time    2.02: real time    2.02
       DOS:  cpu time    0.00: real time    0.00
    --------------------------------------------
      LOOP:  cpu time    2.02: real time    2.03

 eigenvalue-minimisations  :   192
 total energy-change (2. order) :-0.3540544E-03  (-0.3540544E-03)
 number of electron      32.0000000 magnetization 
 augmentation part       32.0000000 magnetization 

 Free energy of the ion-electron system (eV)
  ---------------------------------------------------
  alpha Z        PSCENC =        12.68944982
  Ewald energy   TEWEN  =      -907.56633305
  -1/2 Hartree   DENC   =       -45.63676534
  -exchange  EXHF       =         0.00000000
  -V(xc)+E(xc)   XCENC  =       -76.79671265
  PAW double counting   =       265.93453375     -123.69690146
  entropy T*S    EENTRO =         0.00000000
  eigenvalues    EBANDS =        14.08081007
  atomic energy  EATOM  =       826.37398168
  ---------------------------------------------------
  free energy    TOTEN  =       -34.61793719 eV

  energy without entropy =      -34.61793719  energy(sigma->0) =      -34.61793719


--------------------------------------------------------------------------------------------------------




 average (electrostatic) potential at core
  the test charge radii are     0.9892
  (the norm of the test charge is              1.0000)
       1 -84.3488       2 -84.3500       3 -84.3499       4 -84.3439       5 -84.3492
       6 -84.3484       7 -84.3546       8 -84.3601
 
 
 
 E-fermi :   5.2024     XC(G=0):  -9.5533     alpha+bet :-11.7379


 k-point   1 :       0.0000    0.0000    0.0000
  band No.  band energies     occupation 
      1      -6.6372      2.00000
      2      -2.6486      2.00000
      3      -2.6387      2.00000
      4      -2.6357      2.00000
      5      -2.6295      2.00000
      6      -2.6216      2.00000
      7      -2.6141      2.00000
      8       2.3705      2.00000
      9       2.3729      2.00000
     10       2.3758      2.00000
     11       2.3788      2.00000
     12       2.3818      2.00000
     13       2.3860      2.00000
     14       5.0559      2.00000
     15       5.0707      2.00000
     16       5.0734      2.00000
     17       6.1394      0.00000
     18       6.1470      0.00000
     19       6.1501      0.00000
     20       6.1529      0.00000
     21       6.1601      0.00000
     22       6.1696      0.00000
     23       7.8458      0.00000
     24       7.8473      0.00000
     25       7.8555      0.00000
     26       8.1178      0.00000
     27      13.1837      0.00000
     28      13.1837      0.00000
     29      13.2693      0.00000
     30      15.0731      0.00000
     31      15.0798      0.00000
     32      15.0835      0.00000
     33      15.0874      0.00000
     34      15.0912      0.00000
     35      15.0933      0.00000
     36      16.2930      0.00000
     37      16.2976      0.00000
     38      16.3047      0.00000
     39      16.3155      0.00000
     40      16.3205      0.00000
     41      16.3310      0.00000
     42      16.7003      0.00000
     43      16.7021      0.00000
     44      16.7110      0.00000
     45      17.8752      0.00000
     46      17.8794      0.00000
     47      17.8812      0.00000
     48      17.8966      0.00000


--------------------------------------------------------------------------------------------------------


 soft charge-density along one line, spin component           1
         0         1         2         3         4         5         6         7         8         9
 total charge-density along one line
 
 pseudopotential strength for first ion, spin component:           1
 18.662   0.000   0.000   0.000   0.000   0.000   0.000   0.000
  0.000   0.006   0.000   0.000   0.000   0.000   0.000   0.000
  0.000   0.000   4.216   0.000   0.000  -0.004   0.000   0.000
  0.000   0.000   0.000   4.216   0.000   0.000  -0.004   0.000
  0.000   0.000   0.000   0.000   4.216   0.000   0.000  -0.004
  0.000   0.000  -0.004   0.000   0.000   0.005   0.000   0.000
  0.000   0.000   0.000  -0.004   0.000   0.000   0.005   0.000
  0.000   0.000   0.000   0.000  -0.004   0.000   0.000   0.005
 total augmentation occupancy for first ion, spin component:           1
  2.000   0.000   0.000   0.000   0.000   0.000   0.000   0.000
  0.000   0.000   0.000   0.000   0.000   0.000   0.000   0.000
  0.000   0.000   0.667   0.000   0.000   0.000   0.000   0.000
  0.000   0.000   0.000   0.667   0.000   0.000   0.000   0.000
  0.000   0.000   0.000   0.000   0.667   0.000   0.000   0.000
  0.000   0.000   0.000   0.000   0.000   0.000   0.000   0.000
  0.000   0.000   0.000   0.000   0.000   0.000   0.000   0.000
  0.000   0.000   0.000   0.000   0.000   0.000   0.000   0.000


----------------------------------------- Iteration    1(   5)  ---------------------------------------


     EDDAV:  cpu time    0.39: real time    0.39
       DOS:  cpu time    0.00: real time    0.00
    CHARGE:  cpu time    0.02: real time    0.02
    MIXING:  cpu time    0.00: real time    0.00
    --------------------------------------------
      LOOP:  cpu time    0.42: real time    0.43

 eigenvalue-minimisations  :    96
 total energy-change (2. order) :-0.3040213E-08  (-0.3041101E-08)
 number of electron      31.9999999 magnetization 
 augmentation part       -1.8053363 magnetization 

 Broyden mixing:
  rms(total) = 0.79305E+00    rms(broyden)= 0.79300E+00
  rms(prec ) = 0.15229E+01
  weight for this iteration     100.00

 Free energy of the ion-electron system (eV)
  ---------------------------------------------------
  alpha Z        PSCENC =        12.68944982
  Ewald energy   TEWEN  =      -907.56633305
  -1/2 Hartree   DENC   =       -45.63676534
  -exchange  EXHF       =         0.00000000
  -V(xc)+E(xc)   XCENC  =       -76.79671265
  PAW double counting   =       265.93453375     -123.69690146
  entropy T*S    EENTRO =         0.00000000
  eigenvalues    EBANDS =        14.08081007
  atomic energy  EATOM  =       826.37398168
  ---------------------------------------------------
  free energy    TOTEN  =       -34.61793720 eV

  energy without entropy =      -34.61793720  energy(sigma->0) =      -34.61793720


--------------------------------------------------------------------------------------------------------




 average (electrostatic) potential at core
  the test charge radii are     0.9892
  (the norm of the test charge is              1.0000)
       1 -84.3488       2 -84.3500       3 -84.3499       4 -84.3439       5 -84.3492
       6 -84.3484       7 -84.3546       8 -84.3601
 
 
 
 E-fermi :   5.1962     XC(G=0):  -9.5533     alpha+bet :-11.7379


 k-point   1 :       0.0000    0.0000    0.0000
  band No.  band energies     occupation 
      1      -6.6372      2.00000
      2      -2.6486      2.00000
      3      -2.6387      2.00000
      4      -2.6357      2.00000
      5      -2.6295      2.00000
      6      -2.6216      2.00000
      7      -2.6141      2.00000
      8       2.3705      2.00000
      9       2.3729      2.00000
     10       2.3758      2.00000
     11       2.3788      2.00000
     12       2.3818      2.00000
     13       2.3860      2.00000
     14       5.0559      2.00000
     15       5.0707      2.00000
     16       5.0734      2.00000
     17       6.1394      0.00000
     18       6.1470      0.00000
     19       6.1501      0.00000
     20       6.1529      0.00000
     21       6.1601      0.00000
     22       6.1696      0.00000
     23       7.8458      0.00000
     24       7.8473      0.00000
     25       7.8555      0.00000
     26       8.1178      0.00000
     27      13.1837      0.00000
     28      13.1837      0.00000
     29      13.2693      0.00000
     30      15.0730      0.00000
     31      15.0798      0.00000
     32      15.0835      0.00000
     33      15.0874      0.00000
     34      15.0912      0.00000
     35      15.0933      0.00000
     36      16.2928      0.00000
     37      16.2974      0.00000
     38      16.3042      0.00000
     39      16.3152      0.00000
     40      16.3200      0.00000
     41      16.3307      0.00000
     42      16.7002      0.00000
     43      16.7019      0.00000
     44      16.7109      0.00000
     45      17.8699      0.00000
     46      17.8723      0.00000
     47      17.8779      0.00000
     48      17.8838      0.00000


--------------------------------------------------------------------------------------------------------


 soft charge-density along one line, spin component           1
         0         1         2         3         4         5         6         7         8         9
 total charge-density along one line
 
 pseudopotential strength for first ion, spin component:           1
 18.662   0.000   0.000   0.000   0.000   0.000   0.000   0.000
  0.000   0.006   0.000   0.000   0.000   0.000   0.000   0.000
  0.000   0.000   4.216   0.000   0.000  -0.004   0.000   0.000
  0.000   0.000   0.000   4.216   0.000   0.000  -0.004   0.000
  0.000   0.000   0.000   0.000   4.216   0.000   0.000  -0.004
  0.000   0.000  -0.004   0.000   0.000   0.005   0.000   0.000
  0.000   0.000   0.000  -0.004   0.000   0.000   0.005   0.000
  0.000   0.000   0.000   0.000  -0.004   0.000   0.000   0.005
 total augmentation occupancy for first ion, spin component:           1
  1.380  -1.051  -0.001  -0.001   0.002   0.001   0.000  -0.001
 -1.051   0.918   0.000  -0.001   0.000  -0.001   0.000   0.001
 -0.001   0.000   1.165   0.000  -0.001  -0.758  -0.001   0.001
 -0.001  -0.001   0.000   1.165   0.000  -0.001  -0.758   0.000
  0.002   0.000  -0.001   0.000   1.163   0.001   0.000  -0.757
  0.001  -0.001  -0.758  -0.001   0.001   0.569   0.001  -0.001
  0.000   0.000  -0.001  -0.758   0.000   0.001   0.569   0.000
 -0.001   0.001   0.001   0.000  -0.757  -0.001   0.000   0.568


----------------------------------------- Iteration    1(   6)  ---------------------------------------


    POTLOK:  cpu time    0.02: real time    0.02
    SETDIJ:  cpu time    0.02: real time    0.02
    EDDIAG:  cpu time    0.03: real time    0.03
  RMM-DIIS:  cpu time    0.03: real time    0.03
    ORTHCH:  cpu time    0.01: real time    0.01
       DOS:  cpu time    0.00: real time    0.00
    CHARGE:  cpu time    0.02: real time    0.02
    MIXING:  cpu time    0.00: real time    0.00
    --------------------------------------------
      LOOP:  cpu time    0.14: real time    0.15

 eigenvalue-minimisations  :    96
 total energy-change (2. order) : 0.1001701E+01  (-0.3198259E-01)
 number of electron      31.9999999 magnetization 
 augmentation part       -1.7684082 magnetization 

 Broyden mixing:
  rms(total) = 0.47399E+00    rms(broyden)= 0.47399E+00
  rms(prec ) = 0.91065E+00
  weight for this iteration     100.00

 eigenvalues of (default mixing * dielectric matrix)
  average eigenvalue GAMMA=   2.4573
  2.4573

 Free energy of the ion-electron system (eV)
  ---------------------------------------------------
  alpha Z        PSCENC =        12.68944982
  Ewald energy   TEWEN  =      -907.56633305
  -1/2 Hartree   DENC   =       -54.68323753
  -exchange  EXHF       =         0.00000000
  -V(xc)+E(xc)   XCENC  =       -75.44941825
  PAW double counting   =       286.06056759     -144.35887249
  entropy T*S    EENTRO =         0.00000000
  eigenvalues    EBANDS =        23.31762631
  atomic energy  EATOM  =       826.37398168
  ---------------------------------------------------
  free energy    TOTEN  =       -33.61623593 eV

  energy without entropy =      -33.61623593  energy(sigma->0) =      -33.61623593


--------------------------------------------------------------------------------------------------------




 average (electrostatic) potential at core
  the test charge radii are     0.9892
  (the norm of the test charge is              1.0000)
       1 -83.8320       2 -83.8326       3 -83.8325       4 -83.8296       5 -83.8321
       6 -83.8318       7 -83.8348       8 -83.8374
 
 
 
 E-fermi :   5.5470     XC(G=0):  -9.4504     alpha+bet :-11.7379


 k-point   1 :       0.0000    0.0000    0.0000
  band No.  band energies     occupation 
      1      -6.3788      2.00000
      2      -2.3473      2.00000
      3      -2.3389      2.00000
      4      -2.3363      2.00000
      5      -2.3306      2.00000
      6      -2.3241      2.00000
      7      -2.3176      2.00000
      8       2.6322      2.00000
      9       2.6345      2.00000
     10       2.6370      2.00000
     11       2.6399      2.00000
     12       2.6424      2.00000
     13       2.6461      2.00000
     14       5.3895      2.00000
     15       5.4040      2.00000
     16       5.4067      2.00000
     17       6.2553      0.00000
     18       6.2621      0.00000
     19       6.2648      0.00000
     20       6.2676      0.00000
     21       6.2738      0.00000
     22       6.2822      0.00000
     23       8.0531      0.00000
     24       8.0546      0.00000
     25       8.0630      0.00000
     26       8.4862      0.00000
     27      13.3050      0.00000
     28      13.3568      0.00000
     29      13.3569      0.00000
     30      15.3700      0.00000
     31      15.3762      0.00000
     32      15.3796      0.00000
     33      15.3833      0.00000
     34      15.3870      0.00000
     35      15.3891      0.00000
     36      16.5302      0.00000
     37      16.5344      0.00000
     38      16.5405      0.00000
     39      16.5506      0.00000
     40      16.5549      0.00000
     41      16.5647      0.00000
     42      16.7448      0.00000
     43      16.7466      0.00000
     44      16.7557      0.00000
     45      18.1577      0.00000
     46      18.1612      0.00000
     47      18.1678      0.00000
     48      18.1704      0.00000


--------------------------------------------------------------------------------------------------------


 soft charge-density along one line, spin component           1
         0         1         2         3         4         5         6         7         8         9
 total charge-density along one line
 
 pseudopotential strength for first ion, spin component:           1
 18.635  -0.001   0.000   0.000   0.000   0.000   0.000   0.000
 -0.001   0.006   0.000   0.000   0.000   0.000   0.000   0.000
  0.000   0.000   4.221   0.000   0.000  -0.004   0.000   0.000
  0.000   0.000   0.000   4.221   0.000   0.000  -0.004   0.000
  0.000   0.000   0.000   0.000   4.221   0.000   0.000  -0.004
  0.000   0.000  -0.004   0.000   0.000   0.005   0.000   0.000
  0.000   0.000   0.000  -0.004   0.000   0.000   0.005   0.000
  0.000   0.000   0.000   0.000  -0.004   0.000   0.000   0.005
 total augmentation occupancy for first ion, spin component:           1
  1.351  -1.089  -0.001  -0.001   0.002   0.001   0.000  -0.001
 -1.089   0.996   0.000  -0.001   0.001  -0.001   0.000   0.001
 -0.001   0.000   1.147   0.001   0.000  -0.782  -0.001   0.001
 -0.001  -0.001   0.001   1.147   0.000  -0.001  -0.782   0.000
  0.002   0.001   0.000   0.000   1.145   0.001   0.000  -0.780
  0.001  -0.001  -0.782  -0.001   0.001   0.608   0.001  -0.002
  0.000   0.000  -0.001  -0.782   0.000   0.001   0.607   0.000
 -0.001   0.001   0.001   0.000  -0.780  -0.002   0.000   0.606


----------------------------------------- Iteration    1(   7)  ---------------------------------------


    POTLOK:  cpu time    0.02: real time    0.02
    SETDIJ:  cpu time    0.02: real time    0.02
    EDDIAG:  cpu time    0.02: real time    0.02
  RMM-DIIS:  cpu time    0.03: real time    0.03
    ORTHCH:  cpu time    0.01: real time    0.01
       DOS:  cpu time    0.00: real time    0.00
    CHARGE:  cpu time    0.04: real time    0.04
    MIXING:  cpu time    0.00: real time    0.00
    --------------------------------------------
      LOOP:  cpu time    0.14: real time    0.14

 eigenvalue-minimisations  :    96
 total energy-change (2. order) : 0.4246580E+00  (-0.7388521E-01)
 number of electron      31.9999999 magnetization 
 augmentation part       -1.7214549 magnetization 

 Broyden mixing:
  rms(total) = 0.46252E-01    rms(broyden)= 0.46242E-01
  rms(prec ) = 0.78461E-01
  weight for this iteration     100.00

 eigenvalues of (default mixing * dielectric matrix)
  average eigenvalue GAMMA=   2.5299
  2.5299  2.5299

 Free energy of the ion-electron system (eV)
  ---------------------------------------------------
  alpha Z        PSCENC =        12.68944982
  Ewald energy   TEWEN  =      -907.56633305
  -1/2 Hartree   DENC   =       -70.51394041
  -exchange  EXHF       =         0.00000000
  -V(xc)+E(xc)   XCENC  =       -73.00931696
  PAW double counting   =       313.72424604     -172.73624620
  entropy T*S    EENTRO =         0.00000000
  eigenvalues    EBANDS =        37.84658121
  atomic energy  EATOM  =       826.37398168
  ---------------------------------------------------
  free energy    TOTEN  =       -33.19157788 eV

  energy without entropy =      -33.19157788  energy(sigma->0) =      -33.19157788


--------------------------------------------------------------------------------------------------------




 average (electrostatic) potential at core
  the test charge radii are     0.9892
  (the norm of the test charge is              1.0000)
       1 -83.1446       2 -83.1452       3 -83.1457       4 -83.1438       5 -83.1456
       6 -83.1445       7 -83.1469       8 -83.1483
 
 
 
 E-fermi :   6.0962     XC(G=0):  -9.2018     alpha+bet :-11.7379


 k-point   1 :       0.0000    0.0000    0.0000
  band No.  band energies     occupation 
      1      -5.9621      2.00000
      2      -1.8789      2.00000
      3      -1.8718      2.00000
      4      -1.8694      2.00000
      5      -1.8639      2.00000
      6      -1.8588      2.00000
      7      -1.8532      2.00000
      8       3.0453      2.00000
      9       3.0475      2.00000
     10       3.0495      2.00000
     11       3.0527      2.00000
     12       3.0546      2.00000
     13       3.0580      2.00000
     14       5.9143      2.00000
     15       5.9284      2.00000
     16       5.9311      2.00000
     17       6.5153      0.00000
     18       6.5210      0.00000
     19       6.5234      0.00000
     20       6.5265      0.00000
     21       6.5313      0.00000
     22       6.5383      0.00000
     23       8.3781      0.00000
     24       8.3797      0.00000
     25       8.3883      0.00000
     26       9.0452      0.00000
     27      13.6013      0.00000
     28      13.6204      0.00000
     29      13.6204      0.00000
     30      15.8210      0.00000
     31      15.8266      0.00000
     32      15.8299      0.00000
     33      15.8329      0.00000
     34      15.8363      0.00000
     35      15.8383      0.00000
     36      16.8986      0.00000
     37      16.8999      0.00000
     38      16.9097      0.00000
     39      16.9518      0.00000
     40      16.9555      0.00000
     41      16.9611      0.00000
     42      16.9697      0.00000
     43      16.9731      0.00000
     44      16.9822      0.00000
     45      18.6535      0.00000
     46      18.6581      0.00000
     47      18.6657      0.00000
     48      18.6739      0.00000


--------------------------------------------------------------------------------------------------------


 soft charge-density along one line, spin component           1
         0         1         2         3         4         5         6         7         8         9
 total charge-density along one line
 
 pseudopotential strength for first ion, spin component:           1
 18.596  -0.001   0.000   0.000   0.000   0.000   0.000   0.000
 -0.001   0.006   0.000   0.000   0.000   0.000   0.000   0.000
  0.000   0.000   4.227   0.000   0.000  -0.005   0.000   0.000
  0.000   0.000   0.000   4.227   0.000   0.000  -0.005   0.000
  0.000   0.000   0.000   0.000   4.227   0.000   0.000  -0.005
  0.000   0.000  -0.005   0.000   0.000   0.005   0.000   0.000
  0.000   0.000   0.000  -0.005   0.000   0.000   0.005   0.000
  0.000   0.000   0.000   0.000  -0.005   0.000   0.000   0.005
 total augmentation occupancy for first ion, spin component:           1
  1.315  -1.111  -0.001  -0.001   0.002   0.001   0.001  -0.002
 -1.111   1.057   0.000  -0.001   0.001  -0.001   0.000   0.001
 -0.001   0.000   1.122   0.001   0.000  -0.805  -0.001   0.001
 -0.001  -0.001   0.001   1.122  -0.001  -0.001  -0.805   0.000
  0.002   0.001   0.000  -0.001   1.121   0.001   0.000  -0.804
  0.001  -0.001  -0.805  -0.001   0.001   0.652   0.001  -0.002
  0.001   0.000  -0.001  -0.805   0.000   0.001   0.651   0.000
 -0.002   0.001   0.001   0.000  -0.804  -0.002   0.000   0.650


----------------------------------------- Iteration    1(   8)  ---------------------------------------


    POTLOK:  cpu time    0.02: real time    0.02
    SETDIJ:  cpu time    0.02: real time    0.03
    EDDIAG:  cpu time    0.02: real time    0.02
  RMM-DIIS:  cpu time    0.02: real time    0.02
    ORTHCH:  cpu time    0.01: real time    0.01
       DOS:  cpu time    0.00: real time    0.00
    CHARGE:  cpu time    0.02: real time    0.02
    MIXING:  cpu time    0.00: real time    0.00
    --------------------------------------------
      LOOP:  cpu time    0.13: real time    0.13

 eigenvalue-minimisations  :    96
 total energy-change (2. order) :-0.3197250E-01  (-0.2160291E-02)
 number of electron      31.9999999 magnetization 
 augmentation part       -1.7275469 magnetization 

 Broyden mixing:
  rms(total) = 0.75052E-02    rms(broyden)= 0.75047E-02
  rms(prec ) = 0.17982E-01
  weight for this iteration     100.00

 eigenvalues of (default mixing * dielectric matrix)
  average eigenvalue GAMMA=   2.1205
  1.2723  2.8641  2.2252

 Free energy of the ion-electron system (eV)
  ---------------------------------------------------
  alpha Z        PSCENC =        12.68944982
  Ewald energy   TEWEN  =      -907.56633305
  -1/2 Hartree   DENC   =       -70.39883709
  -exchange  EXHF       =         0.00000000
  -V(xc)+E(xc)   XCENC  =       -72.96578579
  PAW double counting   =       307.36536052     -166.19264898
  entropy T*S    EENTRO =         0.00000000
  eigenvalues    EBANDS =        37.47126252
  atomic energy  EATOM  =       826.37398168
  ---------------------------------------------------
  free energy    TOTEN  =       -33.22355039 eV

  energy without entropy =      -33.22355039  energy(sigma->0) =      -33.22355039


--------------------------------------------------------------------------------------------------------




 average (electrostatic) potential at core
  the test charge radii are     0.9892
  (the norm of the test charge is              1.0000)
       1 -83.2469       2 -83.2479       3 -83.2481       4 -83.2435       5 -83.2476
       6 -83.2467       7 -83.2515       8 -83.2556
 
 
 
 E-fermi :   6.0354     XC(G=0):  -9.1505     alpha+bet :-11.7379


 k-point   1 :       0.0000    0.0000    0.0000
  band No.  band energies     occupation 
      1      -5.9632      2.00000
      2      -1.8918      2.00000
      3      -1.8837      2.00000
      4      -1.8813      2.00000
      5      -1.8755      2.00000
      6      -1.8697      2.00000
      7      -1.8634      2.00000
      8       3.0333      2.00000
      9       3.0357      2.00000
     10       3.0379      2.00000
     11       3.0414      2.00000
     12       3.0434      2.00000
     13       3.0472      2.00000
     14       5.8982      2.00000
     15       5.9124      2.00000
     16       5.9150      2.00000
     17       6.5657      0.00000
     18       6.5716      0.00000
     19       6.5742      0.00000
     20       6.5773      0.00000
     21       6.5824      0.00000
     22       6.5898      0.00000
     23       8.3675      0.00000
     24       8.3690      0.00000
     25       8.3776      0.00000
     26       9.0381      0.00000
     27      13.6064      0.00000
     28      13.6064      0.00000
     29      13.7782      0.00000
     30      15.8063      0.00000
     31      15.8118      0.00000
     32      15.8155      0.00000
     33      15.8182      0.00000
     34      15.8217      0.00000
     35      15.8236      0.00000
     36      16.9347      0.00000
     37      16.9359      0.00000
     38      16.9452      0.00000
     39      16.9585      0.00000
     40      16.9626      0.00000
     41      16.9681      0.00000
     42      16.9766      0.00000
     43      16.9799      0.00000
     44      16.9896      0.00000
     45      18.6896      0.00000
     46      18.6941      0.00000
     47      18.7036      0.00000
     48      18.7125      0.00000


--------------------------------------------------------------------------------------------------------


 soft charge-density along one line, spin component           1
         0         1         2         3         4         5         6         7         8         9
 total charge-density along one line
 
 pseudopotential strength for first ion, spin component:           1
 18.599  -0.001   0.000   0.000   0.000   0.000   0.000   0.000
 -0.001   0.006   0.000   0.000   0.000   0.000   0.000   0.000
  0.000   0.000   4.224   0.000   0.000  -0.005   0.000   0.000
  0.000   0.000   0.000   4.224   0.000   0.000  -0.005   0.000
  0.000   0.000   0.000   0.000   4.224   0.000   0.000  -0.005
  0.000   0.000  -0.005   0.000   0.000   0.005   0.000   0.000
  0.000   0.000   0.000  -0.005   0.000   0.000   0.005   0.000
  0.000   0.000   0.000   0.000  -0.005   0.000   0.000   0.005
 total augmentation occupancy for first ion, spin component:           1
  1.320  -1.092  -0.001  -0.001   0.002   0.001   0.000  -0.002
 -1.092   1.020   0.000  -0.001   0.001  -0.001   0.000   0.001
 -0.001   0.000   1.124   0.001   0.000  -0.801  -0.001   0.001
 -0.001  -0.001   0.001   1.123  -0.001  -0.001  -0.801   0.000
  0.002   0.001   0.000  -0.001   1.122   0.001   0.000  -0.799
  0.001  -0.001  -0.801  -0.001   0.001   0.647   0.001  -0.002
  0.000   0.000  -0.001  -0.801   0.000   0.001   0.647   0.000
 -0.002   0.001   0.001   0.000  -0.799  -0.002   0.000   0.646


----------------------------------------- Iteration    1(   9)  ---------------------------------------


    POTLOK:  cpu time    0.02: real time    0.02
    SETDIJ:  cpu time    0.02: real time    0.02
    EDDIAG:  cpu time    0.02: real time    0.02
  RMM-DIIS:  cpu time    0.05: real time    0.05
    ORTHCH:  cpu time    0.01: real time    0.01
       DOS:  cpu time    0.00: real time    0.00
    CHARGE:  cpu time    0.02: real time    0.02
    MIXING:  cpu time    0.00: real time    0.00
    --------------------------------------------
      LOOP:  cpu time    0.15: real time    0.15

 eigenvalue-minimisations  :   104
 total energy-change (2. order) :-0.1137934E-02  (-0.1266898E-03)
 number of electron      31.9999999 magnetization 
 augmentation part       -1.7274670 magnetization 

 Broyden mixing:
  rms(total) = 0.41751E-02    rms(broyden)= 0.41750E-02
  rms(prec ) = 0.68455E-02
  weight for this iteration     100.00

 eigenvalues of (default mixing * dielectric matrix)
  average eigenvalue GAMMA=   2.2828
  0.9849  3.1937  2.6601  2.2923

 Free energy of the ion-electron system (eV)
  ---------------------------------------------------
  alpha Z        PSCENC =        12.68944982
  Ewald energy   TEWEN  =      -907.56633305
  -1/2 Hartree   DENC   =       -70.79548997
  -exchange  EXHF       =         0.00000000
  -V(xc)+E(xc)   XCENC  =       -72.90654012
  PAW double counting   =       307.71519107     -166.55285276
  entropy T*S    EENTRO =         0.00000000
  eigenvalues    EBANDS =        37.81790501
  atomic energy  EATOM  =       826.37398168
  ---------------------------------------------------
  free energy    TOTEN  =       -33.22468832 eV

  energy without entropy =      -33.22468832  energy(sigma->0) =      -33.22468832


--------------------------------------------------------------------------------------------------------




 average (electrostatic) potential at core
  the test charge radii are     0.9892
  (the norm of the test charge is              1.0000)
       1 -83.2332       2 -83.2339       3 -83.2337       4 -83.2304       5 -83.2334
       6 -83.2331       7 -83.2364       8 -83.2396
 
 
 
 E-fermi :   6.0504     XC(G=0):  -9.1363     alpha+bet :-11.7379


 k-point   1 :       0.0000    0.0000    0.0000
  band No.  band energies     occupation 
      1      -5.9520      2.00000
      2      -1.8801      2.00000
      3      -1.8724      2.00000
      4      -1.8701      2.00000
      5      -1.8644      2.00000
      6      -1.8588      2.00000
      7      -1.8527      2.00000
      8       3.0433      2.00000
      9       3.0457      2.00000
     10       3.0478      2.00000
     11       3.0511      2.00000
     12       3.0531      2.00000
     13       3.0567      2.00000
     14       5.9103      2.00000
     15       5.9244      2.00000
     16       5.9271      2.00000
     17       6.5797      0.00000
     18       6.5856      0.00000
     19       6.5883      0.00000
     20       6.5913      0.00000
     21       6.5965      0.00000
     22       6.6040      0.00000
     23       8.3752      0.00000
     24       8.3767      0.00000
     25       8.3852      0.00000
     26       9.0526      0.00000
     27      13.6116      0.00000
     28      13.6117      0.00000
     29      13.8105      0.00000
     30      15.8168      0.00000
     31      15.8224      0.00000
     32      15.8259      0.00000
     33      15.8288      0.00000
     34      15.8322      0.00000
     35      15.8342      0.00000
     36      16.9448      0.00000
     37      16.9460      0.00000
     38      16.9554      0.00000
     39      16.9708      0.00000
     40      16.9747      0.00000
     41      16.9803      0.00000
     42      16.9886      0.00000
     43      16.9919      0.00000
     44      17.0014      0.00000
     45      18.7071      0.00000
     46      18.7119      0.00000
     47      18.7220      0.00000
     48      18.7316      0.00000


--------------------------------------------------------------------------------------------------------


 soft charge-density along one line, spin component           1
         0         1         2         3         4         5         6         7         8         9
 total charge-density along one line
 
 pseudopotential strength for first ion, spin component:           1
 18.598  -0.001   0.000   0.000   0.000   0.000   0.000   0.000
 -0.001   0.006   0.000   0.000   0.000   0.000   0.000   0.000
  0.000   0.000   4.224   0.000   0.000  -0.005   0.000   0.000
  0.000   0.000   0.000   4.224   0.000   0.000  -0.005   0.000
  0.000   0.000   0.000   0.000   4.224   0.000   0.000  -0.005
  0.000   0.000  -0.005   0.000   0.000   0.005   0.000   0.000
  0.000   0.000   0.000  -0.005   0.000   0.000   0.005   0.000
  0.000   0.000   0.000   0.000  -0.005   0.000   0.000   0.005
 total augmentation occupancy for first ion, spin component:           1
  1.320  -1.086  -0.001  -0.001   0.002   0.001   0.000  -0.002
 -1.086   1.011   0.000  -0.001   0.001  -0.001   0.000   0.001
 -0.001   0.000   1.123   0.001   0.000  -0.801  -0.001   0.001
 -0.001  -0.001   0.001   1.123  -0.001  -0.001  -0.800   0.000
  0.002   0.001   0.000  -0.001   1.122   0.001   0.000  -0.799
  0.001  -0.001  -0.801  -0.001   0.001   0.647   0.001  -0.002
  0.000   0.000  -0.001  -0.800   0.000   0.001   0.647   0.000
 -0.002   0.001   0.001   0.000  -0.799  -0.002   0.000   0.646


----------------------------------------- Iteration    1(  10)  ---------------------------------------


    POTLOK:  cpu time    0.02: real time    0.02
    SETDIJ:  cpu time    0.02: real time    0.02
    EDDIAG:  cpu time    0.02: real time    0.02
  RMM-DIIS:  cpu time    0.04: real time    0.04
    ORTHCH:  cpu time    0.01: real time    0.01
       DOS:  cpu time    0.00: real time    0.00
    CHARGE:  cpu time    0.02: real time    0.02
    MIXING:  cpu time    0.00: real time    0.00
    --------------------------------------------
      LOOP:  cpu time    0.14: real time    0.14

 eigenvalue-minimisations  :   104
 total energy-change (2. order) :-0.1853338E-03  (-0.2322957E-04)
 number of electron      31.9999999 magnetization 
 augmentation part       -1.7273534 magnetization 

 Broyden mixing:
  rms(total) = 0.42011E-03    rms(broyden)= 0.41964E-03
  rms(prec ) = 0.86083E-03
  weight for this iteration     100.00

 eigenvalues of (default mixing * dielectric matrix)
  average eigenvalue GAMMA=   2.0374
  3.0860  2.6210  2.1603  0.9788  1.3408

 Free energy of the ion-electron system (eV)
  ---------------------------------------------------
  alpha Z        PSCENC =        12.68944982
  Ewald energy   TEWEN  =      -907.56633305
  -1/2 Hartree   DENC   =       -70.84612364
  -exchange  EXHF       =         0.00000000
  -V(xc)+E(xc)   XCENC  =       -72.90952465
  PAW double counting   =       307.79992722     -166.64358251
  entropy T*S    EENTRO =         0.00000000
  eigenvalues    EBANDS =        37.87733148
  atomic energy  EATOM  =       826.37398168
  ---------------------------------------------------
  free energy    TOTEN  =       -33.22487365 eV

  energy without entropy =      -33.22487365  energy(sigma->0) =      -33.22487365


--------------------------------------------------------------------------------------------------------




 average (electrostatic) potential at core
  the test charge radii are     0.9892
  (the norm of the test charge is              1.0000)
       1 -83.2251       2 -83.2257       3 -83.2255       4 -83.2230       5 -83.2252
       6 -83.2251       7 -83.2275       8 -83.2299
 
 
 
 E-fermi :   6.0548     XC(G=0):  -9.1309     alpha+bet :-11.7379


 k-point   1 :       0.0000    0.0000    0.0000
  band No.  band energies     occupation 
      1      -5.9496      2.00000
      2      -1.8779      2.00000
      3      -1.8703      2.00000
      4      -1.8680      2.00000
      5      -1.8625      2.00000
      6      -1.8570      2.00000
      7      -1.8511      2.00000
      8       3.0451      2.00000
      9       3.0473      2.00000
     10       3.0494      2.00000
     11       3.0526      2.00000
     12       3.0546      2.00000
     13       3.0581      2.00000
     14       5.9124      2.00000
     15       5.9264      2.00000
     16       5.9291      2.00000
     17       6.5848      0.00000
     18       6.5908      0.00000
     19       6.5934      0.00000
     20       6.5964      0.00000
     21       6.6017      0.00000
     22       6.6092      0.00000
     23       8.3761      0.00000
     24       8.3776      0.00000
     25       8.3861      0.00000
     26       9.0561      0.00000
     27      13.6116      0.00000
     28      13.6117      0.00000
     29      13.8260      0.00000
     30      15.8185      0.00000
     31      15.8241      0.00000
     32      15.8275      0.00000
     33      15.8306      0.00000
     34      15.8340      0.00000
     35      15.8360      0.00000
     36      16.9486      0.00000
     37      16.9499      0.00000
     38      16.9592      0.00000
     39      16.9735      0.00000
     40      16.9775      0.00000
     41      16.9830      0.00000
     42      16.9912      0.00000
     43      16.9944      0.00000
     44      17.0038      0.00000
     45      18.7146      0.00000
     46      18.7192      0.00000
     47      18.7286      0.00000
     48      18.7382      0.00000


--------------------------------------------------------------------------------------------------------


 soft charge-density along one line, spin component           1
         0         1         2         3         4         5         6         7         8         9
 total charge-density along one line
 
 pseudopotential strength for first ion, spin component:           1
 18.597  -0.001   0.000   0.000   0.000   0.000   0.000   0.000
 -0.001   0.006   0.000   0.000   0.000   0.000   0.000   0.000
  0.000   0.000   4.224   0.000   0.000  -0.005   0.000   0.000
  0.000   0.000   0.000   4.224   0.000   0.000  -0.005   0.000
  0.000   0.000   0.000   0.000   4.224   0.000   0.000  -0.005
  0.000   0.000  -0.005   0.000   0.000   0.005   0.000   0.000
  0.000   0.000   0.000  -0.005   0.000   0.000   0.005   0.000
  0.000   0.000   0.000   0.000  -0.005   0.000   0.000   0.005
 total augmentation occupancy for first ion, spin component:           1
  1.320  -1.086  -0.001  -0.001   0.002   0.001   0.000  -0.002
 -1.086   1.011   0.000  -0.001   0.001  -0.001   0.000   0.001
 -0.001   0.000   1.123   0.001   0.000  -0.801  -0.001   0.001
 -0.001  -0.001   0.001   1.123  -0.001  -0.001  -0.801   0.000
  0.002   0.001   0.000  -0.001   1.121   0.001   0.000  -0.800
  0.001  -0.001  -0.801  -0.001   0.001   0.648   0.001  -0.002
  0.000   0.000  -0.001  -0.801   0.000   0.001   0.647   0.000
 -0.002   0.001   0.001   0.000  -0.800  -0.002   0.000   0.646


----------------------------------------- Iteration    1(  11)  ---------------------------------------


    POTLOK:  cpu time    0.02: real time    0.02
    SETDIJ:  cpu time    0.02: real time    0.02
    EDDIAG:  cpu time    0.02: real time    0.02
  RMM-DIIS:  cpu time    0.03: real time    0.03
    ORTHCH:  cpu time    0.01: real time    0.01
       DOS:  cpu time    0.00: real time    0.00
    CHARGE:  cpu time    0.02: real time    0.02
    MIXING:  cpu time    0.00: real time    0.00
    --------------------------------------------
      LOOP:  cpu time    0.13: real time    0.13

 eigenvalue-minimisations  :   117
 total energy-change (2. order) : 0.4422830E-05  (-0.2888309E-06)
 number of electron      31.9999999 magnetization 
 augmentation part       -1.7274451 magnetization 

 Broyden mixing:
  rms(total) = 0.16232E-03    rms(broyden)= 0.16226E-03
  rms(prec ) = 0.31983E-03
  weight for this iteration     100.00

 eigenvalues of (default mixing * dielectric matrix)
  average eigenvalue GAMMA=   1.9610
  3.2044  2.7000  2.1670  1.7363  0.9790  0.9790

 Free energy of the ion-electron system (eV)
  ---------------------------------------------------
  alpha Z        PSCENC =        12.68944982
  Ewald energy   TEWEN  =      -907.56633305
  -1/2 Hartree   DENC   =       -70.82780409
  -exchange  EXHF       =         0.00000000
  -V(xc)+E(xc)   XCENC  =       -72.91096461
  PAW double counting   =       307.73282014     -166.57393472
  entropy T*S    EENTRO =         0.00000000
  eigenvalues    EBANDS =        37.85791560
  atomic energy  EATOM  =       826.37398168
  ---------------------------------------------------
  free energy    TOTEN  =       -33.22486923 eV

  energy without entropy =      -33.22486923  energy(sigma->0) =      -33.22486923


--------------------------------------------------------------------------------------------------------




 average (electrostatic) potential at core
  the test charge radii are     0.9892
  (the norm of the test charge is              1.0000)
       1 -83.2269       2 -83.2276       3 -83.2274       4 -83.2243       5 -83.2271
       6 -83.2268       7 -83.2299       8 -83.2327
 
 
 
 E-fermi :   6.0542     XC(G=0):  -9.1314     alpha+bet :-11.7379


 k-point   1 :       0.0000    0.0000    0.0000
  band No.  band energies     occupation 
      1      -5.9502      2.00000
      2      -1.8787      2.00000
      3      -1.8710      2.00000
      4      -1.8687      2.00000
      5      -1.8631      2.00000
      6      -1.8575      2.00000
      7      -1.8515      2.00000
      8       3.0444      2.00000
      9       3.0467      2.00000
     10       3.0488      2.00000
     11       3.0521      2.00000
     12       3.0541      2.00000
     13       3.0577      2.00000
     14       5.9117      2.00000
     15       5.9257      2.00000
     16       5.9284      2.00000
     17       6.5843      0.00000
     18       6.5902      0.00000
     19       6.5929      0.00000
     20       6.5959      0.00000
     21       6.6011      0.00000
     22       6.6086      0.00000
     23       8.3756      0.00000
     24       8.3772      0.00000
     25       8.3857      0.00000
     26       9.0552      0.00000
     27      13.6114      0.00000
     28      13.6114      0.00000
     29      13.8248      0.00000
     30      15.8179      0.00000
     31      15.8235      0.00000
     32      15.8269      0.00000
     33      15.8299      0.00000
     34      15.8334      0.00000
     35      15.8353      0.00000
     36      16.9482      0.00000
     37      16.9495      0.00000
     38      16.9588      0.00000
     39      16.9729      0.00000
     40      16.9768      0.00000
     41      16.9823      0.00000
     42      16.9907      0.00000
     43      16.9939      0.00000
     44      17.0034      0.00000
     45      18.7163      0.00000
     46      18.7206      0.00000
     47      18.7286      0.00000
     48      18.7375      0.00000


--------------------------------------------------------------------------------------------------------


 soft charge-density along one line, spin component           1
         0         1         2         3         4         5         6         7         8         9
 total charge-density along one line
 
 pseudopotential strength for first ion, spin component:           1
 18.597  -0.001   0.000   0.000   0.000   0.000   0.000   0.000
 -0.001   0.006   0.000   0.000   0.000   0.000   0.000   0.000
  0.000   0.000   4.224   0.000   0.000  -0.005   0.000   0.000
  0.000   0.000   0.000   4.224   0.000   0.000  -0.005   0.000
  0.000   0.000   0.000   0.000   4.224   0.000   0.000  -0.005
  0.000   0.000  -0.005   0.000   0.000   0.005   0.000   0.000
  0.000   0.000   0.000  -0.005   0.000   0.000   0.005   0.000
  0.000   0.000   0.000   0.000  -0.005   0.000   0.000   0.005
 total augmentation occupancy for first ion, spin component:           1
  1.320  -1.086  -0.001  -0.001   0.002   0.001   0.000  -0.002
 -1.086   1.010   0.000  -0.001   0.001  -0.001   0.000   0.001
 -0.001   0.000   1.123   0.001   0.000  -0.801  -0.001   0.001
 -0.001  -0.001   0.001   1.123  -0.001  -0.001  -0.801   0.000
  0.002   0.001   0.000  -0.001   1.121   0.001   0.000  -0.800
  0.001  -0.001  -0.801  -0.001   0.001   0.648   0.001  -0.002
  0.000   0.000  -0.001  -0.801   0.000   0.001   0.647   0.000
 -0.002   0.001   0.001   0.000  -0.800  -0.002   0.000   0.646


----------------------------------------- Iteration    1(  12)  ---------------------------------------


    POTLOK:  cpu time    0.02: real time    0.02
    SETDIJ:  cpu time    0.02: real time    0.02
    EDDIAG:  cpu time    0.02: real time    0.02
  RMM-DIIS:  cpu time    0.03: real time    0.03
    ORTHCH:  cpu time    0.01: real time    0.01
       DOS:  cpu time    0.00: real time    0.00
    CHARGE:  cpu time    0.02: real time    0.02
    MIXING:  cpu time    0.00: real time    0.00
    --------------------------------------------
      LOOP:  cpu time    0.12: real time    0.13

 eigenvalue-minimisations  :   125
 total energy-change (2. order) :-0.7004787E-06  (-0.5905786E-07)
 number of electron      31.9999999 magnetization 
 augmentation part       -1.7274327 magnetization 

 Broyden mixing:
  rms(total) = 0.58884E-04    rms(broyden)= 0.58846E-04
  rms(prec ) = 0.85420E-04
  weight for this iteration     100.00

 eigenvalues of (default mixing * dielectric matrix)
  average eigenvalue GAMMA=   1.9932
  3.2159  2.7296  2.4189  2.0063  1.6212  1.0014  0.9591

 Free energy of the ion-electron system (eV)
  ---------------------------------------------------
  alpha Z        PSCENC =        12.68944982
  Ewald energy   TEWEN  =      -907.56633305
  -1/2 Hartree   DENC   =       -70.83220128
  -exchange  EXHF       =         0.00000000
  -V(xc)+E(xc)   XCENC  =       -72.91089379
  PAW double counting   =       307.74076634     -166.58209964
  entropy T*S    EENTRO =         0.00000000
  eigenvalues    EBANDS =        37.86246000
  atomic energy  EATOM  =       826.37398168
  ---------------------------------------------------
  free energy    TOTEN  =       -33.22486993 eV

  energy without entropy =      -33.22486993  energy(sigma->0) =      -33.22486993


--------------------------------------------------------------------------------------------------------




 average (electrostatic) potential at core
  the test charge radii are     0.9892
  (the norm of the test charge is              1.0000)
       1 -83.2263       2 -83.2270       3 -83.2269       4 -83.2237       5 -83.2266
       6 -83.2262       7 -83.2294       8 -83.2323
 
 
 
 E-fermi :   6.0545     XC(G=0):  -9.1312     alpha+bet :-11.7379


 k-point   1 :       0.0000    0.0000    0.0000
  band No.  band energies     occupation 
      1      -5.9501      2.00000
      2      -1.8786      2.00000
      3      -1.8709      2.00000
      4      -1.8686      2.00000
      5      -1.8629      2.00000
      6      -1.8574      2.00000
      7      -1.8513      2.00000
      8       3.0445      2.00000
      9       3.0468      2.00000
     10       3.0490      2.00000
     11       3.0523      2.00000
     12       3.0542      2.00000
[...]
    MIXING:  cpu time    0.00: real time    0.00
    --------------------------------------------
      LOOP:  cpu time    0.16: real time    0.16

 Broyden mixing:
  rms(total) = 0.70399E-02    rms(broyden)= 0.70395E-02
  rms(prec ) = 0.12082E-01
  weight for this iteration     100.00

 eigenvalues of (default mixing * dielectric matrix)
  average eigenvalue GAMMA=   2.0736
  3.0318  2.4848  1.1238  1.6539

 Free energy of the ion-electron system (eV)
  ---------------------------------------------------
  -1/2 Hartree   DENC   =        -4.61513164
  -V(xc)+E(xc)   XCENC  =         0.94978762
  PAW double counting   =         3.10165399       -3.15103663
  entropy T*S    EENTRO =         0.00000000
  eigenvalues    EBANDS =       -24.52884718
  ---------------------------------------------------
  free energy    TOTEN  =       -28.24357384 eV

  energy without entropy =      -28.24357384


----------------------------------------- Iteration    3(   7)  ---------------------------------------


   POT+DIJ:  cpu time    0.08: real time    0.08
    HAMIL1:  cpu time    0.00: real time    0.01
    LRDIAG:  cpu time    0.01: real time    0.01
    LRDIIS:  cpu time    0.02: real time    0.02
    LRDIAG:  cpu time    0.01: real time    0.01
    MIXING:  cpu time    0.00: real time    0.00
    --------------------------------------------
      LOOP:  cpu time    0.16: real time    0.16

 Broyden mixing:
  rms(total) = 0.53934E-03    rms(broyden)= 0.53842E-03
  rms(prec ) = 0.10198E-02
  weight for this iteration     100.00

 eigenvalues of (default mixing * dielectric matrix)
  average eigenvalue GAMMA=   1.9580
  3.0894  2.4105  1.1160  1.6734  1.5005

 Free energy of the ion-electron system (eV)
  ---------------------------------------------------
  -1/2 Hartree   DENC   =        -4.62700732
  -V(xc)+E(xc)   XCENC  =         0.95748344
  PAW double counting   =         3.06500525       -3.11383860
  entropy T*S    EENTRO =         0.00000000
  eigenvalues    EBANDS =       -24.56499310
  ---------------------------------------------------
  free energy    TOTEN  =       -28.28335033 eV

  energy without entropy =      -28.28335033


----------------------------------------- Iteration    3(   8)  ---------------------------------------


   POT+DIJ:  cpu time    0.08: real time    0.08
    HAMIL1:  cpu time    0.00: real time    0.01
    LRDIAG:  cpu time    0.01: real time    0.01
    LRDIIS:  cpu time    0.02: real time    0.02
    LRDIAG:  cpu time    0.01: real time    0.01
    MIXING:  cpu time    0.00: real time    0.00
    --------------------------------------------
      LOOP:  cpu time    0.16: real time    0.16

 Broyden mixing:
  rms(total) = 0.27707E-03    rms(broyden)= 0.27700E-03
  rms(prec ) = 0.40954E-03
  weight for this iteration     100.00

 eigenvalues of (default mixing * dielectric matrix)
  average eigenvalue GAMMA=   1.9135
  3.0868  2.4781  2.0346  1.6638  1.1376  1.0798

 Free energy of the ion-electron system (eV)
  ---------------------------------------------------
  -1/2 Hartree   DENC   =        -4.63049421
  -V(xc)+E(xc)   XCENC  =         0.95839387
  PAW double counting   =         3.06886485       -3.11776284
  entropy T*S    EENTRO =         0.00000000
  eigenvalues    EBANDS =       -24.56597946
  ---------------------------------------------------
  free energy    TOTEN  =       -28.28697779 eV

  energy without entropy =      -28.28697779


----------------------------------------- Iteration    3(   9)  ---------------------------------------


   POT+DIJ:  cpu time    0.08: real time    0.08
    HAMIL1:  cpu time    0.01: real time    0.00
    LRDIAG:  cpu time    0.01: real time    0.01
    LRDIIS:  cpu time    0.02: real time    0.02
    LRDIAG:  cpu time    0.01: real time    0.01
    MIXING:  cpu time    0.00: real time    0.00
    --------------------------------------------
      LOOP:  cpu time    0.16: real time    0.16

 Broyden mixing:
  rms(total) = 0.10372E-03    rms(broyden)= 0.10370E-03
  rms(prec ) = 0.15723E-03
  weight for this iteration     100.00

 eigenvalues of (default mixing * dielectric matrix)
  average eigenvalue GAMMA=   1.8921
  3.1756  2.7290  2.3985  1.6741  1.2700  1.1033  0.8940

 Free energy of the ion-electron system (eV)
  ---------------------------------------------------
  -1/2 Hartree   DENC   =        -4.63018971
  -V(xc)+E(xc)   XCENC  =         0.95833312
  PAW double counting   =         3.07097470       -3.11990916
  entropy T*S    EENTRO =         0.00000000
  eigenvalues    EBANDS =       -24.56623635
  ---------------------------------------------------
  free energy    TOTEN  =       -28.28702741 eV

  energy without entropy =      -28.28702741


----------------------------------------- Iteration    3(  10)  ---------------------------------------


   POT+DIJ:  cpu time    0.08: real time    0.08
    HAMIL1:  cpu time    0.01: real time    0.01
    LRDIAG:  cpu time    0.01: real time    0.01
    LRDIIS:  cpu time    0.02: real time    0.02
    LRDIAG:  cpu time    0.01: real time    0.01
    MIXING:  cpu time    0.00: real time    0.00
    --------------------------------------------
      LOOP:  cpu time    0.17: real time    0.17

 Broyden mixing:
  rms(total) = 0.15052E-04    rms(broyden)= 0.15041E-04
  rms(prec ) = 0.24429E-04
  weight for this iteration     100.00

 eigenvalues of (default mixing * dielectric matrix)
  average eigenvalue GAMMA=   1.8341
  3.1950  2.7692  2.4456  1.6699  1.4203  0.9799  1.1214  1.0712

 Free energy of the ion-electron system (eV)
  ---------------------------------------------------
  -1/2 Hartree   DENC   =        -4.63027102
  -V(xc)+E(xc)   XCENC  =         0.95837475
  PAW double counting   =         3.07210277       -3.12105691
  entropy T*S    EENTRO =         0.00000000
  eigenvalues    EBANDS =       -24.56649234
  ---------------------------------------------------
  free energy    TOTEN  =       -28.28734274 eV

  energy without entropy =      -28.28734274


----------------------------------------- Iteration    3(  11)  ---------------------------------------


   POT+DIJ:  cpu time    0.08: real time    0.08
    HAMIL1:  cpu time    0.00: real time    0.01
    LRDIAG:  cpu time    0.01: real time    0.01
    LRDIIS:  cpu time    0.02: real time    0.02
    LRDIAG:  cpu time    0.01: real time    0.01
    MIXING:  cpu time    0.00: real time    0.00
    --------------------------------------------
      LOOP:  cpu time    0.16: real time    0.16

 Broyden mixing:
  rms(total) = 0.39075E-05    rms(broyden)= 0.39054E-05
  rms(prec ) = 0.56866E-05
  weight for this iteration     100.00

 eigenvalues of (default mixing * dielectric matrix)
  average eigenvalue GAMMA=   1.8720
  3.2015  2.7968  2.4369  2.2356  1.6706  1.3885  1.1099  0.9900  1.0185

 Free energy of the ion-electron system (eV)
  ---------------------------------------------------
  -1/2 Hartree   DENC   =        -4.63027759
  -V(xc)+E(xc)   XCENC  =         0.95837120
  PAW double counting   =         3.07219010       -3.12114563
  entropy T*S    EENTRO =         0.00000000
  eigenvalues    EBANDS =       -24.56647238
  ---------------------------------------------------
  free energy    TOTEN  =       -28.28733431 eV

  energy without entropy =      -28.28733431


----------------------------------------- Iteration    3(  12)  ---------------------------------------


   POT+DIJ:  cpu time    0.08: real time    0.08
    HAMIL1:  cpu time    0.01: real time    0.01
    LRDIAG:  cpu time    0.01: real time    0.01
    LRDIIS:  cpu time    0.02: real time    0.02
    LRDIAG:  cpu time    0.01: real time    0.01
    MIXING:  cpu time    0.00: real time    0.00
    --------------------------------------------
      LOOP:  cpu time    0.16: real time    0.16

 Broyden mixing:
  rms(total) = 0.12154E-05    rms(broyden)= 0.12150E-05
  rms(prec ) = 0.17827E-05
  weight for this iteration     100.00

 eigenvalues of (default mixing * dielectric matrix)
  average eigenvalue GAMMA=   1.8449
  3.2046  2.7994  2.4777  2.4392  1.6698  1.3679  1.3679  1.0063  1.0063  1.1104

 Free energy of the ion-electron system (eV)
  ---------------------------------------------------
  -1/2 Hartree   DENC   =        -4.63027769
  -V(xc)+E(xc)   XCENC  =         0.95837096
  PAW double counting   =         3.07211600       -3.12107029
  entropy T*S    EENTRO =         0.00000000
  eigenvalues    EBANDS =       -24.56647368
  ---------------------------------------------------
  free energy    TOTEN  =       -28.28733471 eV

  energy without entropy =      -28.28733471


----------------------------------------- Iteration    3(  13)  ---------------------------------------


   POT+DIJ:  cpu time    0.08: real time    0.08
    HAMIL1:  cpu time    0.00: real time    0.01
    LRDIAG:  cpu time    0.01: real time    0.01
    LRDIIS:  cpu time    0.02: real time    0.02
    LRDIAG:  cpu time    0.01: real time    0.01
    MIXING:  cpu time    0.00: real time    0.00
    --------------------------------------------
      LOOP:  cpu time    0.16: real time    0.16

 Broyden mixing:
  rms(total) = 0.31082E-06    rms(broyden)= 0.31075E-06
  rms(prec ) = 0.55461E-06
  weight for this iteration     100.00

 eigenvalues of (default mixing * dielectric matrix)
  average eigenvalue GAMMA=   1.8167
  3.2078  2.8392  2.6079  2.4422  1.6776  1.6344  1.3045  1.0011  1.0011  1.1042
  1.1642

 Free energy of the ion-electron system (eV)
  ---------------------------------------------------
  -1/2 Hartree   DENC   =        -4.63027927
  -V(xc)+E(xc)   XCENC  =         0.95837118
  PAW double counting   =         3.07209194       -3.12104579
  entropy T*S    EENTRO =         0.00000000
  eigenvalues    EBANDS =       -24.56647347
  ---------------------------------------------------
  free energy    TOTEN  =       -28.28733541 eV

  energy without entropy =      -28.28733541


------------------------ aborting loop because EDIFF is reached ----------------------------------------


 change of polarisation eV/A/(eV/A) component  3 :    -0.150     0.091    50.534
 dielectric tensor                  component  3 :    -0.166     0.100    56.871


--------------------------------------------------------------------------------------------------------


    FORLOC:  cpu time    0.00: real time    0.00
    FORNL :  cpu time    0.09: real time    0.09
    STRESS:  cpu time    0.30: real time    0.30
    FORCOR:  cpu time    0.02: real time    0.02
    FORLOC:  cpu time    0.00: real time    0.00
    FORNL :  cpu time    0.09: real time    0.09
    STRESS:  cpu time    0.30: real time    0.30
    FORCOR:  cpu time    0.02: real time    0.02
    FORNLD:  cpu time    0.13: real time    0.14

 PIEZOELECTRIC TENSOR FIELD DIRECTION 3  (e Angst)
 -----------------------------------------------------------------------------
    -0.01124 -0.00231  0.00290           (  0.00001  0.00000  0.00000)
    -0.00231  0.00799 -0.00133           (  0.00000  0.00000 -0.00001)
     0.00290 -0.00133 -0.00187           (  0.00000 -0.00001 -0.00001)

 PIEZOELECTRIC TENSOR FIELD DIRECTION 3  (C/m^2)
 -----------------------------------------------------------------------------
    -0.00110 -0.00023  0.00028
    -0.00023  0.00078 -0.00013
     0.00028 -0.00013 -0.00018


      POSITION         DIRECTION 3           BORN EFFECTIVE CHARGE    (rigid.aug.   ionic)
 -----------------------------------------------------------------------------------------
      0.00099      5.46998      5.46708     0.09765  0.10880 -5.79969 (  0.21592  4.00000)
      1.36748      1.36458      1.37017     0.09538 -0.11194 -5.81233 (  0.21593  4.00000)
      2.73208      2.73767      5.46757    -0.06799 -0.04807 -5.79695 (  0.21593  4.00000)
      4.10517      4.10007      1.36703     0.07277  0.07621 -5.86386 (  0.21590  4.00000)
      2.73257      5.46953      2.73829    -0.08919  0.04300 -5.78064 (  0.21592  4.00000)
      4.10203      1.37079      4.10234    -0.08466 -0.08783 -5.76592 (  0.21592  4.00000)
      0.00329      2.73484      2.73428     0.07285 -0.11577 -5.72878 (  0.21595  4.00000)
      1.36734      4.10178      4.10214    -0.06173  0.11169 -5.66581 (  0.21597  4.00000)
 -----------------------------------------------------------------------------------------
    total drift (improves with k-points):   0.03509 -0.02391-46.21397




--------------------------------------------------------------------------------------------------------


  LATTYP: Found a simple cubic cell.
 ALAT       =     5.4700000000
  
  Lattice vectors:
  
 A1 = (   5.4700000000,   0.0000000000,   0.0000000000)
 A2 = (   0.0000000000,   5.4700000000,   0.0000000000)
 A3 = (   0.0000000000,   0.0000000000,   5.4700000000)


Analysis of symmetry for initial positions (statically):
=====================================================================
 Subroutine PRICEL returns:
 Original cell was already a primitive cell.
 

 Routine SETGRP: Setting up the symmetry group for a 
 simple cubic supercell.


 Subroutine GETGRP returns: Found  1 space group operations
 (whereof  1 operations were pure point group operations)
 out of a pool of 48 trial point group operations.


The static configuration has the point symmetry C_1 .


Analysis of symmetry for dynamics (positions and initial velocities):
=====================================================================
 Subroutine PRICEL returns:
 Original cell was already a primitive cell.
 

 Routine SETGRP: Setting up the symmetry group for a 
 simple cubic supercell.


 Subroutine GETGRP returns: Found  1 space group operations
 (whereof  1 operations were pure point group operations)
 out of a pool of 48 trial point group operations.


The dynamic configuration has the point symmetry C_1 .


 MACROSCOPIC STATIC DIELECTRIC TENSOR (including local field effects in DFT)
 ------------------------------------------------------
          56.860064     0.149933    -0.165772
           0.149935    56.859221     0.100086
          -0.165771     0.100087    56.870944
 ------------------------------------------------------



--------------------------------------------------------------------------------------------------------


  LATTYP: Found a simple cubic cell.
 ALAT       =     5.4700000000
  
  Lattice vectors:
  
 A1 = (   5.4700000000,   0.0000000000,   0.0000000000)
 A2 = (   0.0000000000,   5.4700000000,   0.0000000000)
 A3 = (   0.0000000000,   0.0000000000,   5.4700000000)


Analysis of symmetry for initial positions (statically):
=====================================================================
 Subroutine PRICEL returns:
 Original cell was already a primitive cell.
 

 Routine SETGRP: Setting up the symmetry group for a 
 simple cubic supercell.


 Subroutine GETGRP returns: Found  1 space group operations
 (whereof  1 operations were pure point group operations)
 out of a pool of 48 trial point group operations.


The static configuration has the point symmetry C_1 .


Analysis of symmetry for dynamics (positions and initial velocities):
=====================================================================
 Subroutine PRICEL returns:
 Original cell was already a primitive cell.
 

 Routine SETGRP: Setting up the symmetry group for a 
 simple cubic supercell.


 Subroutine GETGRP returns: Found  1 space group operations
 (whereof  1 operations were pure point group operations)
 out of a pool of 48 trial point group operations.


The dynamic configuration has the point symmetry C_1 .
 
 KPOINTS: Automatic mesh                          

Automatic generation of k-mesh.
Space group operators:
 irot       det(A)        alpha          n_x          n_y          n_z        tau_x        tau_y        tau_z
    1     1.000000     0.000001     1.000000     0.000000     0.000000     0.000000     0.000000     0.000000
 
 Subroutine IBZKPT returns following result:
 ===========================================
 
 Found      1 irreducible k-points:
 
 Following reciprocal coordinates:
            Coordinates               Weight
  0.000000  0.000000  0.000000      1.000000
 
 Following cartesian coordinates:
            Coordinates               Weight
  0.000000  0.000000  0.000000      1.000000
 


--------------------------------------------------------------------------------------------------------




 MACROSCOPIC STATIC DIELECTRIC TENSOR (including local field effects in DFT)
 ------------------------------------------------------
          56.860064     0.149933    -0.165772
           0.149935    56.859221     0.100086
          -0.165771     0.100087    56.870944
 ------------------------------------------------------


 PIEZOELECTRIC TENSOR  for field in x, y, z        (e  Angst)
          XX          YY          ZZ          XY          YZ          ZX
  --------------------------------------------------------------------------------
  x    -0.00189    -0.00956     0.00403     0.00498     0.00411    -0.00419
  y     0.01053     0.00133    -0.01468    -0.00266     0.00439     0.00024
  z    -0.01124     0.00799    -0.00187    -0.00231    -0.00133     0.00290

 PIEZOELECTRIC TENSOR  for field in x, y, z        (C/m^2)
          XX          YY          ZZ          XY          YZ          ZX
  --------------------------------------------------------------------------------
  x    -0.00019    -0.00094     0.00039     0.00049     0.00040    -0.00041
  y     0.00103     0.00013    -0.00144    -0.00026     0.00043     0.00002
  z    -0.00110     0.00078    -0.00018    -0.00023    -0.00013     0.00028
 
 BORN EFFECTIVE CHARGES (in e, cummulative output)
 -------------------------------------------------
 ion    1
    1    -5.78545    -0.12119    -0.04569
    2     0.05610    -5.80200    -0.14944
    3     0.09765     0.10880    -5.79969
 ion    2
    1    -5.74889     0.01213    -0.04099
    2     0.01179    -5.79755     0.06836
    3     0.09538    -0.11194    -5.81233
 ion    3
    1    -5.78611     0.10801     0.07199
    2    -0.06597    -5.77349    -0.03711
    3    -0.06799    -0.04807    -5.79695
 ion    4
    1    -5.87241    -0.01589    -0.07909
    2    -0.01994    -5.82341    -0.08337
    3     0.07277     0.07621    -5.86386
 ion    5
    1    -5.79639    -0.08469     0.05758
    2     0.08402    -5.80219     0.03085
    3    -0.08919     0.04300    -5.78064
 ion    6
    1    -5.82822     0.13257     0.04686
    2    -0.14405    -5.80568     0.07395
    3    -0.08466    -0.08783    -5.76592
 ion    7
    1    -5.73497     0.07491    -0.06330
    2    -0.08901    -5.72644     0.13860
    3     0.07285    -0.11577    -5.72878
 ion    8
    1    -5.65790    -0.13979     0.08769
    2     0.13282    -5.67903    -0.06557
    3    -0.06173     0.11169    -5.66581


--------------------------------------------------------------------------------------------------------


     LOOP+:  cpu time   21.33: real time   21.75
    4ORBIT:  cpu time    0.00: real time    0.00

 total amount of memory used by VASP on root node    32224. kBytes
========================================================================

   base      :      30000. kBytes
   nonl-proj :        202. kBytes
   fftplans  :        782. kBytes
   grid      :       1198. kBytes
   one-center:         24. kBytes
   wavefun   :         18. kBytes
 
  
  
 General timing and accounting informations for this job:
 ========================================================
  
                  Total CPU time used (sec):       23.012
                            User time (sec):       17.895
                          System time (sec):        5.116
                         Elapsed time (sec):       25.934
  
                   Maximum memory used (kb):       57384.
                   Average memory used (kb):           0.
  
                          Minor page faults:       210900
                          Major page faults:            0
                 Voluntary context switches:         1523
