 vasp.5.3.3 18Dez12 (build Jan  9 2014 12:00:49) complex                        
  
 executed on             LinuxIFC date 2014.01.29  10:02:05
 running on   48 total cores
 distrk:  each k-point on   48 cores,    1 groups
 distr:  one band on NCORES_PER_BAND=   1 cores,   48 groups


--------------------------------------------------------------------------------------------------------


 INCAR:
 POTCAR:    PAW Si                                

 ----------------------------------------------------------------------------- 
|                                                                             |
|           W    W    AA    RRRRR   N    N  II  N    N   GGGG   !!!           |
|           W    W   A  A   R    R  NN   N  II  NN   N  G    G  !!!           |
|           W    W  A    A  R    R  N N  N  II  N N  N  G       !!!           |
|           W WW W  AAAAAA  RRRRR   N  N N  II  N  N N  G  GGG   !            |
|           WW  WW  A    A  R   R   N   NN  II  N   NN  G    G                |
|           W    W  A    A  R    R  N    N  II  N    N   GGGG   !!!           |
|                                                                             |
|      For optimal performance we recommend that you set                      |
|        NPAR = 4 - approx SQRT( number of cores)                             |
|      (number of cores/NPAR must be integer)                                 |
|      This setting will greatly improve the performance of VASP for DFT.     |
|      The default NPAR=number of cores might be grossly inefficient          |
|      on modern multi-core architectures or massively parallel machines.     |
|      Do your own testing.                                                   |
|      Unfortunately you need to use the default for hybrid, GW and RPA       |
|      calculations.                                                          |
|                                                                             |
 ----------------------------------------------------------------------------- 

 POTCAR:    PAW Si                                
   VRHFIN =Si: s2p2                                                             
   LEXCH  = 91                                                                  
   EATOM  =   103.3076 eV,    7.5929 Ry                                         
                                                                                
   TITEL  = PAW Si                                                              
   LULTRA =        F    use ultrasoft PP ?                                      
   IUNSCR =        1    unscreen: 0-lin 1-nonlin 2-no                           
   RPACOR =    1.500    partial core radius                                     
   POMASS =   28.085; ZVAL   =    4.000    mass and valenz                      
   RCORE  =    1.900    outmost cutoff radius                                   
   RWIGS  =    2.480; RWIGS  =    1.312    wigner-seitz radius (au A)           
   ENMAX  =  245.435; ENMIN  =  184.076 eV                                      
   ICORE  =        2    local potential                                         
   LCOR   =        T    correct aug charges                                     
   LPAW   =        T    paw PP                                                  
   EAUG   =  322.069                                                            
   DEXC   =    -.001                                                            
   RMAX   =    2.943    core radius for proj-oper                               
   RAUG   =    1.300    factor for augmentation sphere                          
   RDEP   =    1.993    core radius for depl-charge                             
   QCUT   =   -4.247; QGAM   =    8.494    optimization parameters              
                                                                                
   Description                                                                  
     l     E      TYP  RCUT    TYP  RCUT                                        
     0   .000     23  1.900                                                     
     0   .000     23  1.900                                                     
     1   .000     23  1.900                                                     
     1   .000     23  1.900                                                     
     2   .000      7  1.900                                                     
  local pseudopotential read in
  partial core-charges read in
  atomic valenz-charges read in
  non local Contribution for L=           0  read in
    real space projection operators read in
  non local Contribution for L=           0  read in
    real space projection operators read in
  non local Contribution for L=           1  read in
    real space projection operators read in
  non local Contribution for L=           1  read in
    real space projection operators read in
    PAW grid and wavefunctions read in
 
   number of l-projection  operators is LMAX  =           4
   number of lm-projection operators is LMMAX =           8
 
  PAW Si                                :
 energy of atom  1       EATOM= -103.3076
 kinetic energy error for atom=    0.0109 (will be added to EATOM!!)
 
 
 POSCAR: OUTCAR.0010.-1.out 1.0e-02              
  positions in cartesian coordinates
  No initial velocities read in
 exchange correlation table for  LEXCH =        7
   RHO(1)=    0.500       N(1)  =     2000
   RHO(2)=  100.500       N(2)  =     4000

 VTST: version 3.0c, (01/09/14)

 CHAIN: initializing optimizer
 
 OPT: Using VASP Dynamics algorithm
 CHAIN: Read ICHAIN            0
 
 POSCAR: OUTCAR.0010.-1.out 1.0e-02              
  positions in cartesian coordinates
  No initial velocities read in
 


--------------------------------------------------------------------------------------------------------


 ion  position               nearest neighbor table
   1  0.000  0.999  1.000-   2 2.37   8 2.37   4 2.37   6 2.37
   2  0.249  0.250  0.250-   1 2.37   7 2.37   3 2.37   5 2.37
   3  0.500  0.500  0.000-   2 2.37   6 2.37   4 2.37   8 2.37
   4  0.750  0.750  0.250-   5 2.37   7 2.37   1 2.37   3 2.37
   5  0.500  1.000  0.500-   4 2.37   6 2.37   8 2.37   2 2.37
   6  0.750  0.250  0.750-   5 2.37   3 2.37   7 2.37   1 2.37
   7  1.000  0.500  0.499-   8 2.37   2 2.37   4 2.37   6 2.37
   8  0.250  0.749  0.749-   7 2.37   1 2.37   5 2.37   3 2.37
 
  LATTYP: Found a simple cubic cell.
 ALAT       =     5.4700000000
  
  Lattice vectors:
  
 A1 = (   5.4700000000,   0.0000000000,   0.0000000000)
 A2 = (   0.0000000000,   5.4700000000,   0.0000000000)
 A3 = (   0.0000000000,   0.0000000000,   5.4700000000)


Analysis of symmetry for initial positions (statically):
=====================================================================
 Subroutine PRICEL returns:
 Original cell was already a primitive cell.
 

 Routine SETGRP: Setting up the symmetry group for a 
 simple cubic supercell.


 Subroutine GETGRP returns: Found  1 space group operations
 (whereof  1 operations were pure point group operations)
 out of a pool of 48 trial point group operations.


The static configuration has the point symmetry C_1 .


Analysis of symmetry for dynamics (positions and initial velocities):
=====================================================================
 Subroutine PRICEL returns:
 Original cell was already a primitive cell.
 

 Routine SETGRP: Setting up the symmetry group for a 
 simple cubic supercell.


 Subroutine GETGRP returns: Found  1 space group operations
 (whereof  1 operations were pure point group operations)
 out of a pool of 48 trial point group operations.


The dynamic configuration has the point symmetry C_1 .


 irot  :   1
 --------------------------------------------------------------------
 isymop:   1   0   0
           0   1   0
           0   0   1

 gtrans:     0.0000000     0.0000000     0.0000000

 ptrans:     0.0000000     0.0000000     0.0000000
 rotmap:
 (   1->   1)  (   2->   2)  (   3->   3)  (   4->   4)  (   5->   5) 
 (   6->   6)  (   7->   7)  (   8->   8) 
 
 
 KPOINTS: Automatic mesh                          

Automatic generation of k-mesh.
Space group operators:
 irot       det(A)        alpha          n_x          n_y          n_z        tau_x        tau_y        tau_z
    1     1.000000     0.000001     1.000000     0.000000     0.000000     0.000000     0.000000     0.000000
 
 Subroutine IBZKPT returns following result:
 ===========================================
 
 Found      1 irreducible k-points:
 
 Following reciprocal coordinates:
            Coordinates               Weight
  0.000000  0.000000  0.000000      1.000000
 
 Following cartesian coordinates:
            Coordinates               Weight
  0.000000  0.000000  0.000000      1.000000
 
 
 Subroutine IBZKPT_HF returns following result:
 ==============================================
 
 Found      1 k-points in 1st BZ
 the following      1 k-points will be used (e.g. in the exchange kernel)
 Following reciprocal coordinates:   # in IRBZ
  0.000000  0.000000  0.000000       1 t-inv F


--------------------------------------------------------------------------------------------------------




 Dimension of arrays:
   k-points           NKPTS =      1   k-points in BZ     NKDIM =      1   number of bands    NBANDS=     48
   number of dos      NEDOS =    301   number of ions     NIONS =      8
   non local maximal  LDIM  =      4   non local SUM 2l+1 LMDIM =      8
   total plane-waves  NPLWV =  21952
   max r-space proj   IRMAX =      1   max aug-charges    IRDMAX=  36071
   dimension x,y,z NGX =    28 NGY =   28 NGZ =   28
   dimension x,y,z NGXF=    56 NGYF=   56 NGZF=   56
   support grid    NGXF=   112 NGYF=  112 NGZF=  112
   ions per type =               8
 NGX,Y,Z   is equivalent  to a cutoff of   8.51,  8.51,  8.51 a.u.
 NGXF,Y,Z  is equivalent  to a cutoff of  17.02, 17.02, 17.02 a.u.


 I would recommend the setting:
   dimension x,y,z NGX =    19 NGY =   19 NGZ =   19
 SYSTEM =  NAPTHA04                                
 POSCAR =  OUTCAR.0010.-1.out 1.0e-02              

 Startparameter for this run:
   NWRITE =      3    write-flag & timer
   PREC   = normal    normal or accurate (medium, high low for compatibility)
   ISTART =      0    job   : 0-new  1-cont  2-samecut
   ICHARG =      2    charge: 1-file 2-atom 10-const
   ISPIN  =      1    spin polarized calculation?
   LNONCOLLINEAR =      F non collinear calculations
   LSORBIT =      F    spin-orbit coupling
   INIWAV =      1    electr: 0-lowe 1-rand  2-diag
   LASPH  =      F    aspherical Exc in radial PAW
   METAGGA=      F    non-selfconsistent MetaGGA calc.

 Electronic Relaxation 1
   ENCUT  =  200.0 eV  14.70 Ry    3.83 a.u.   6.31  6.31  6.31*2*pi/ulx,y,z
   ENINI  =  200.0     initial cutoff
   ENAUG  =  322.1 eV  augmentation charge cutoff
   NELM   =     60;   NELMIN=  2; NELMDL= -5     # of ELM steps 
   EDIFF  = 0.1E-07   stopping-criterion for ELM
   LREAL  =      F    real-space projection
   NLSPLINE    = F    spline interpolate recip. space projectors
   LCOMPAT=      F    compatible to vasp.4.4
   GGA_COMPAT  = T    GGA compatible to vasp.4.4-vasp.4.6
   LMAXPAW     = -100 max onsite density
   LMAXMIX     =    2 max onsite mixed and CHGCAR
   VOSKOWN=      0    Vosko Wilk Nusair interpolation
   ROPT   =    0.00000
 Ionic relaxation
   EDIFFG = 0.1E-06   stopping-criterion for IOM
   NSW    =      0    number of steps for IOM
   NBLOCK =      1;   KBLOCK =      1    inner block; outer block 
   IBRION =     -1    ionic relax: 0-MD 1-quasi-New 2-CG
   NFREE  =      0    steps in history (QN), initial steepest desc. (CG)
   ISIF   =      2    stress and relaxation
   IWAVPR =     10    prediction:  0-non 1-charg 2-wave 3-comb
   ISYM   =      2    0-nonsym 1-usesym 2-fastsym
   LCORR  =      T    Harris-Foulkes like correction to forces

   POTIM  = 0.5000    time-step for ionic-motion
   TEIN   =    0.0    initial temperature
   TEBEG  =    0.0;   TEEND  =   0.0 temperature during run
   SMASS  =  -3.00    Nose mass-parameter (am)
   estimated Nose-frequenzy (Omega)   =  0.10E-29 period in steps =****** mass=  -0.684E-27a.u.
   SCALEE = 1.0000    scale energy and forces
   NPACO  =    256;   APACO  = 16.0  distance and # of slots for P.C.
   PSTRESS=    0.0 pullay stress

  Mass of Ions in am
   POMASS =  28.09
  Ionic Valenz
   ZVAL   =   4.00
  Atomic Wigner-Seitz radii
   RWIGS  =  -1.00
  virtual crystal weights 
   VCA    =   1.00
   NELECT =      32.0000    total number of electrons
   NUPDOWN=      -1.0000    fix difference up-down

 DOS related values:
   EMIN   =  10.00;   EMAX   =-10.00  energy-range for DOS
   EFERMI =   0.00
   ISMEAR =     0;   SIGMA  =   0.02  broadening in eV -4-tet -1-fermi 0-gaus

 Electronic relaxation 2 (details)
   IALGO  =     68    algorithm
   LDIAG  =      T    sub-space diagonalisation (order eigenvalues)
   LSUBROT=      T    optimize rotation matrix (better conditioning)
   TURBO    =      0    0=normal 1=particle mesh
   IRESTART =      0    0=no restart 2=restart with 2 vectors
   NREBOOT  =      0    no. of reboots
   NMIN     =      0    reboot dimension
   EREF     =   0.00    reference energy to select bands
   IMIX   =      4    mixing-type and parameters
     AMIX     =   0.40;   BMIX     =  1.00
     AMIX_MAG =   1.60;   BMIX_MAG =  1.00
     AMIN     =   0.10
     WC   =   100.;   INIMIX=   1;  MIXPRE=   1;  MAXMIX= -45

 Intra band minimization:
   WEIMIN = 0.0000     energy-eigenvalue tresh-hold
   EBREAK =  0.52E-10  absolut break condition
   DEPER  =   0.30     relativ break condition  

   TIME   =   0.40     timestep for ELM

  volume/ion in A,a.u.               =      20.46       138.06
  Fermi-wavevector in a.u.,A,eV,Ry     =   0.950176  1.795573 12.283814  0.902835
  Thomas-Fermi vector in A             =   2.078528
 
 Write flags
   LWAVE  =      F    write WAVECAR
   LCHARG =      F    write CHGCAR
   LVTOT  =      F    write LOCPOT, total local potential
   LVHAR  =      F    write LOCPOT, Hartree potential only
   LELF   =      F    write electronic localiz. function (ELF)
   LORBIT =      0    0 simple, 1 ext, 2 COOP (PROOUT)


 Dipole corrections
   LMONO  =      F    monopole corrections only (constant potential shift)
   LDIPOL =      F    correct potential (dipole corrections)
   IDIPOL =      0    1-x, 2-y, 3-z, 4-all directions 
   EPSILON=  1.0000000 bulk dielectric constant

 Exchange correlation treatment:
   GGA     =    --    GGA type
   LEXCH   =     7    internal setting for exchange type
   VOSKOWN=      0    Vosko Wilk Nusair interpolation
   LHFCALC =     F    Hartree Fock is set to
   LHFONE  =     F    Hartree Fock one center treatment
   AEXX    =    0.0000 exact exchange contribution

 Linear response parameters
   LEPSILON=     T    determine dielectric tensor
   LRPA    =     F    only Hartree local field effects (RPA)
   LNABLA  =     F    use nabla operator in PAW spheres
   LVEL    =     F    velocity operator in full k-point grid
   LINTERFAST=   F  fast interpolation
   KINTER  =     0    interpolate to denser k-point grid
   CSHIFT  =0.1000    complex shift for real part using Kramers Kronig
   OMEGAMAX=  -1.0    maximum frequency
   DEG_THRESHOLD= 0.2000000E-02 threshold for treating states as degnerate
   RTIME   =    0.100 relaxation time in fs

 Orbital magnetization related:
   ORBITALMAG=     F  switch on orbital magnetization
   LCHIMAG   =     F  perturbation theory with respect to B field
   DQ        =  0.001000  dq finite difference perturbation B field



--------------------------------------------------------------------------------------------------------


 Static calculation
 charge density and potential will be updated during run
 non-spin polarized calculation
 RMM-DIIS sequential band-by-band and
  variant of blocked Davidson during initial phase
 perform sub-space diagonalisation
    before iterative eigenvector-optimisation
 modified Broyden-mixing scheme, WC =      100.0
 initial mixing is a Kerker type mixing with AMIX =  0.4000 and BMIX =      1.0000
 Hartree-type preconditioning will be used
 using additional bands           32
 reciprocal scheme for non local part
 use partial core corrections
 calculate Harris-corrections to forces 
   (improved forces if not selfconsistent)
 use gradient corrections 
 use of overlap-Matrix (Vanderbilt PP)
 Gauss-broadening in eV      SIGMA  =   0.02


--------------------------------------------------------------------------------------------------------


  energy-cutoff  :      200.00
  volume of cell :      163.67
      direct lattice vectors                 reciprocal lattice vectors
     5.470000000  0.000000000  0.000000000     0.182815356  0.000000000  0.000000000
     0.000000000  5.470000000  0.000000000     0.000000000  0.182815356  0.000000000
     0.000000000  0.000000000  5.470000000     0.000000000  0.000000000  0.182815356

  length of vectors
     5.470000000  5.470000000  5.470000000     0.182815356  0.182815356  0.182815356


 
 k-points in units of 2pi/SCALE and weight: Automatic mesh                          
   0.00000000  0.00000000  0.00000000       1.000
 
 k-points in reciprocal lattice and weights: Automatic mesh                          
   0.00000000  0.00000000  0.00000000       1.000
 
 position of ions in fractional coordinates (direct lattice) 
   0.00043071  0.99933727  0.99971452
   0.24933727  0.24971452  0.24965023
   0.49971452  0.49965023  0.00016878
   0.74965023  0.75016878  0.24984970
   0.50016878  0.99984970  0.49985777
   0.74984970  0.24985777  0.74998559
   0.99985777  0.49998559  0.49935284
   0.24998559  0.74935284  0.74921608
 
 position of ions in cartesian coordinates  (Angst):
   0.00235598  5.46637485  5.46843841
   1.36387485  1.36593841  1.36558675
   2.73343841  2.73308675  0.00092323
   4.10058675  4.10342323  1.36667785
   2.73592323  5.46917785  2.73422203
   4.10167785  1.36672203  4.10242120
   5.46922203  2.73492120  2.73146006
   1.36742120  4.09896006  4.09821198
 


--------------------------------------------------------------------------------------------------------


 k-point  1 :   0.0000 0.0000 0.0000  plane waves:    1021

 maximum and minimum number of plane-waves per node :      1021     1021

 maximum number of plane-waves:      1021
 maximum index in each direction: 
   IXMAX=    6   IYMAX=    6   IZMAX=    6
   IXMIN=   -6   IYMIN=   -6   IZMIN=   -6

 NGX is ok and might be reduce to  26
 NGY is ok and might be reduce to  26
 NGZ is ok and might be reduce to  26

 serial   3D FFT for wavefunctions
 parallel 3D FFT for charge:
    minimum data exchange during FFTs selected (reduces bandwidth)


 total amount of memory used by VASP on root node    32224. kBytes
========================================================================

   base      :      30000. kBytes
   nonl-proj :        202. kBytes
   fftplans  :        782. kBytes
   grid      :       1198. kBytes
   one-center:         24. kBytes
   wavefun   :         18. kBytes
 
 Broyden mixing: mesh for mixing (old mesh)
   NGX = 13   NGY = 13   NGZ = 13
  (NGX  = 56   NGY  = 56   NGZ  = 56)
  gives a total of   2197 points

 initial charge density was supplied:
 charge density of overlapping atoms calculated
 number of electron      32.0000000 magnetization 
 keeping initial charge density in first step


--------------------------------------------------------------------------------------------------------


 Maximum index for augmentation-charges         1784 (set IRDMAX)


--------------------------------------------------------------------------------------------------------


 First call to EWALD:  gamma=   0.324
 Maximum number of real-space cells 3x 3x 3
 Maximum number of reciprocal cells 3x 3x 3

 FEWALD executed in parallel
    FEWALD:  cpu time    0.00: real time    0.00


----------------------------------------- Iteration    1(   1)  ---------------------------------------


    POTLOK:  cpu time    0.03: real time    0.03
    SETDIJ:  cpu time    0.02: real time    0.02
     EDDAV:  cpu time    0.41: real time    0.41
       DOS:  cpu time    0.00: real time    0.00
    --------------------------------------------
      LOOP:  cpu time    0.47: real time    0.48

 eigenvalue-minimisations  :    96
 total energy-change (2. order) :-0.1013152E+02  (-0.7956060E+03)
 number of electron      32.0000000 magnetization 
 augmentation part       32.0000000 magnetization 

 Free energy of the ion-electron system (eV)
  ---------------------------------------------------
  alpha Z        PSCENC =        12.68944982
  Ewald energy   TEWEN  =      -907.56838581
  -1/2 Hartree   DENC   =       -45.63554645
  -exchange  EXHF       =         0.00000000
  -V(xc)+E(xc)   XCENC  =       -76.79674213
  PAW double counting   =       265.93453375     -123.69690146
  entropy T*S    EENTRO =        -0.00034435
  eigenvalues    EBANDS =        38.56843865
  atomic energy  EATOM  =       826.37398168
  ---------------------------------------------------
  free energy    TOTEN  =       -10.13151630 eV

  energy without entropy =      -10.13117195  energy(sigma->0) =      -10.13134413


--------------------------------------------------------------------------------------------------------




 average (electrostatic) potential at core
  the test charge radii are     0.9892
  (the norm of the test charge is              1.0000)
       1 -84.3502       2 -84.3522       3 -84.3495       4 -84.3524       5 -84.3508
       6 -84.3468       7 -84.3520       8 -84.3511
 
 
 
 E-fermi :   6.6080     XC(G=0):  -9.5533     alpha+bet :-11.7379


 k-point   1 :       0.0000    0.0000    0.0000
  band No.  band energies     occupation 
      1      -6.5896      2.00000
      2      -2.4130      2.00000
      3      -2.2541      2.00000
      4      -2.1227      2.00000
      5      -2.0276      2.00000
      6      -1.8770      2.00000
      7      -1.6729      2.00000
      8       2.7418      2.00000
      9       2.8502      2.00000
     10       2.9932      2.00000
     11       3.1611      2.00000
     12       3.3472      2.00000
     13       4.0777      2.00000
     14       6.1377      2.00000
     15       6.3650      2.00000
     16       6.5671      1.99618
     17       6.6489      0.00382
     18       6.8108      0.00000
     19       6.9083      0.00000
     20       7.1715      0.00000
     21       7.3769      0.00000
     22       8.0495      0.00000
     23       8.9802      0.00000
     24       9.3759      0.00000
     25      10.4482      0.00000
     26      11.4496      0.00000
     27      13.5062      0.00000
     28      14.7719      0.00000
     29      16.5590      0.00000
     30      16.8927      0.00000
     31      17.3636      0.00000
     32      17.5898      0.00000
     33      17.9247      0.00000
     34      18.1311      0.00000
     35      18.4944      0.00000
     36      18.8798      0.00000
     37      19.3716      0.00000
     38      19.5058      0.00000
     39      19.8585      0.00000
     40      20.2536      0.00000
     41      21.0953      0.00000
     42      21.6847      0.00000
     43      22.1810      0.00000
     44      22.7643      0.00000
     45      23.9039      0.00000
     46      24.3974      0.00000
     47      24.8160      0.00000
     48      25.8422      0.00000


--------------------------------------------------------------------------------------------------------


 soft charge-density along one line, spin component           1
         0         1         2         3         4         5         6         7         8         9
 total charge-density along one line
 
 pseudopotential strength for first ion, spin component:           1
 18.662   0.000   0.000   0.000   0.000   0.000   0.000   0.000
  0.000   0.006   0.000   0.000   0.000   0.000   0.000   0.000
  0.000   0.000   4.216   0.000   0.000  -0.004   0.000   0.000
  0.000   0.000   0.000   4.216   0.000   0.000  -0.004   0.000
  0.000   0.000   0.000   0.000   4.216   0.000   0.000  -0.004
  0.000   0.000  -0.004   0.000   0.000   0.005   0.000   0.000
  0.000   0.000   0.000  -0.004   0.000   0.000   0.005   0.000
  0.000   0.000   0.000   0.000  -0.004   0.000   0.000   0.005
 total augmentation occupancy for first ion, spin component:           1
  2.000   0.000   0.000   0.000   0.000   0.000   0.000   0.000
  0.000   0.000   0.000   0.000   0.000   0.000   0.000   0.000
  0.000   0.000   0.667   0.000   0.000   0.000   0.000   0.000
  0.000   0.000   0.000   0.667   0.000   0.000   0.000   0.000
  0.000   0.000   0.000   0.000   0.667   0.000   0.000   0.000
  0.000   0.000   0.000   0.000   0.000   0.000   0.000   0.000
  0.000   0.000   0.000   0.000   0.000   0.000   0.000   0.000
  0.000   0.000   0.000   0.000   0.000   0.000   0.000   0.000


----------------------------------------- Iteration    1(   2)  ---------------------------------------


     EDDAV:  cpu time    0.99: real time    0.99
       DOS:  cpu time    0.00: real time    0.00
    --------------------------------------------
      LOOP:  cpu time    0.99: real time    1.00

 eigenvalue-minimisations  :   144
 total energy-change (2. order) :-0.2431900E+02  (-0.2431529E+02)
 number of electron      32.0000000 magnetization 
 augmentation part       32.0000000 magnetization 

 Free energy of the ion-electron system (eV)
  ---------------------------------------------------
  alpha Z        PSCENC =        12.68944982
  Ewald energy   TEWEN  =      -907.56838581
  -1/2 Hartree   DENC   =       -45.63554645
  -exchange  EXHF       =         0.00000000
  -V(xc)+E(xc)   XCENC  =       -76.79674213
  PAW double counting   =       265.93453375     -123.69690146
  entropy T*S    EENTRO =         0.00000000
  eigenvalues    EBANDS =        14.24909122
  atomic energy  EATOM  =       826.37398168
  ---------------------------------------------------
  free energy    TOTEN  =       -34.45051938 eV

  energy without entropy =      -34.45051938  energy(sigma->0) =      -34.45051938


--------------------------------------------------------------------------------------------------------




 average (electrostatic) potential at core
  the test charge radii are     0.9892
  (the norm of the test charge is              1.0000)
       1 -84.3502       2 -84.3522       3 -84.3495       4 -84.3524       5 -84.3508
       6 -84.3468       7 -84.3520       8 -84.3511
 
 
 
 E-fermi :   5.2485     XC(G=0):  -9.5533     alpha+bet :-11.7379


 k-point   1 :       0.0000    0.0000    0.0000
  band No.  band energies     occupation 
      1      -6.6371      2.00000
      2      -2.6402      2.00000
      3      -2.6341      2.00000
      4      -2.6305      2.00000
      5      -2.6282      2.00000
      6      -2.6235      2.00000
      7      -2.6184      2.00000
      8       2.3759      2.00000
      9       2.3783      2.00000
     10       2.3805      2.00000
     11       2.3831      2.00000
     12       2.3850      2.00000
     13       2.3935      2.00000
     14       5.0686      2.00000
     15       5.0817      2.00000
     16       5.0900      2.00000
     17       6.1505      0.00000
     18       6.1532      0.00000
     19       6.1559      0.00000
     20       6.1571      0.00000
     21       6.1587      0.00000
     22       6.1645      0.00000
     23       7.8512      0.00000
     24       7.8573      0.00000
     25       7.8630      0.00000
     26       8.1266      0.00000
     27      13.2004      0.00000
     28      13.2617      0.00000
     29      13.2700      0.00000
     30      15.1012      0.00000
     31      15.1336      0.00000
     32      15.1712      0.00000
     33      15.2508      0.00000
     34      15.3095      0.00000
     35      15.6346      0.00000
     36      16.3814      0.00000
     37      16.4206      0.00000
     38      16.4470      0.00000
     39      16.5370      0.00000
     40      16.7158      0.00000
     41      16.7540      0.00000
     42      16.7667      0.00000
     43      16.8718      0.00000
     44      17.2351      0.00000
     45      17.9113      0.00000
     46      17.9630      0.00000
     47      17.9944      0.00000
     48      18.0154      0.00000


--------------------------------------------------------------------------------------------------------


 soft charge-density along one line, spin component           1
         0         1         2         3         4         5         6         7         8         9
 total charge-density along one line
 
 pseudopotential strength for first ion, spin component:           1
 18.662   0.000   0.000   0.000   0.000   0.000   0.000   0.000
  0.000   0.006   0.000   0.000   0.000   0.000   0.000   0.000
  0.000   0.000   4.216   0.000   0.000  -0.004   0.000   0.000
  0.000   0.000   0.000   4.216   0.000   0.000  -0.004   0.000
  0.000   0.000   0.000   0.000   4.216   0.000   0.000  -0.004
  0.000   0.000  -0.004   0.000   0.000   0.005   0.000   0.000
  0.000   0.000   0.000  -0.004   0.000   0.000   0.005   0.000
  0.000   0.000   0.000   0.000  -0.004   0.000   0.000   0.005
 total augmentation occupancy for first ion, spin component:           1
  2.000   0.000   0.000   0.000   0.000   0.000   0.000   0.000
  0.000   0.000   0.000   0.000   0.000   0.000   0.000   0.000
  0.000   0.000   0.667   0.000   0.000   0.000   0.000   0.000
  0.000   0.000   0.000   0.667   0.000   0.000   0.000   0.000
  0.000   0.000   0.000   0.000   0.667   0.000   0.000   0.000
  0.000   0.000   0.000   0.000   0.000   0.000   0.000   0.000
  0.000   0.000   0.000   0.000   0.000   0.000   0.000   0.000
  0.000   0.000   0.000   0.000   0.000   0.000   0.000   0.000


----------------------------------------- Iteration    1(   3)  ---------------------------------------


     EDDAV:  cpu time    0.40: real time    0.40
       DOS:  cpu time    0.00: real time    0.00
    --------------------------------------------
      LOOP:  cpu time    0.41: real time    0.41

 eigenvalue-minimisations  :    96
 total energy-change (2. order) :-0.1673542E+00  (-0.1673542E+00)
 number of electron      32.0000000 magnetization 
 augmentation part       32.0000000 magnetization 

 Free energy of the ion-electron system (eV)
  ---------------------------------------------------
  alpha Z        PSCENC =        12.68944982
  Ewald energy   TEWEN  =      -907.56838581
  -1/2 Hartree   DENC   =       -45.63554645
  -exchange  EXHF       =         0.00000000
  -V(xc)+E(xc)   XCENC  =       -76.79674213
  PAW double counting   =       265.93453375     -123.69690146
  entropy T*S    EENTRO =         0.00000000
  eigenvalues    EBANDS =        14.08173703
  atomic energy  EATOM  =       826.37398168
  ---------------------------------------------------
  free energy    TOTEN  =       -34.61787357 eV

  energy without entropy =      -34.61787357  energy(sigma->0) =      -34.61787357


--------------------------------------------------------------------------------------------------------




 average (electrostatic) potential at core
  the test charge radii are     0.9892
  (the norm of the test charge is              1.0000)
       1 -84.3502       2 -84.3522       3 -84.3495       4 -84.3524       5 -84.3508
       6 -84.3468       7 -84.3520       8 -84.3511
 
 
 
 E-fermi :   5.2233     XC(G=0):  -9.5533     alpha+bet :-11.7379


 k-point   1 :       0.0000    0.0000    0.0000
  band No.  band energies     occupation 
      1      -6.6371      2.00000
      2      -2.6417      2.00000
      3      -2.6357      2.00000
      4      -2.6331      2.00000
      5      -2.6301      2.00000
      6      -2.6258      2.00000
      7      -2.6217      2.00000
      8       2.3729      2.00000
      9       2.3751      2.00000
     10       2.3770      2.00000
     11       2.3787      2.00000
     12       2.3798      2.00000
     13       2.3827      2.00000
     14       5.0570      2.00000
     15       5.0656      2.00000
     16       5.0773      2.00000
     17       6.1454      0.00000
     18       6.1500      0.00000
     19       6.1534      0.00000
     20       6.1543      0.00000
     21       6.1559      0.00000
     22       6.1603      0.00000
     23       7.8436      0.00000
     24       7.8500      0.00000
     25       7.8549      0.00000
     26       8.1178      0.00000
     27      13.1845      0.00000
     28      13.1866      0.00000
     29      13.2693      0.00000
     30      15.0853      0.00000
     31      15.0870      0.00000
     32      15.0954      0.00000
     33      15.1116      0.00000
     34      15.1260      0.00000
     35      15.1796      0.00000
     36      16.3179      0.00000
     37      16.3290      0.00000
     38      16.3385      0.00000
     39      16.3671      0.00000
     40      16.4355      0.00000
     41      16.4861      0.00000
     42      16.7084      0.00000
     43      16.7178      0.00000
     44      16.8178      0.00000
     45      17.8860      0.00000
     46      17.8962      0.00000
     47      17.9209      0.00000
     48      17.9398      0.00000


--------------------------------------------------------------------------------------------------------


 soft charge-density along one line, spin component           1
         0         1         2         3         4         5         6         7         8         9
 total charge-density along one line
 
 pseudopotential strength for first ion, spin component:           1
 18.662   0.000   0.000   0.000   0.000   0.000   0.000   0.000
  0.000   0.006   0.000   0.000   0.000   0.000   0.000   0.000
  0.000   0.000   4.216   0.000   0.000  -0.004   0.000   0.000
  0.000   0.000   0.000   4.216   0.000   0.000  -0.004   0.000
  0.000   0.000   0.000   0.000   4.216   0.000   0.000  -0.004
  0.000   0.000  -0.004   0.000   0.000   0.005   0.000   0.000
  0.000   0.000   0.000  -0.004   0.000   0.000   0.005   0.000
  0.000   0.000   0.000   0.000  -0.004   0.000   0.000   0.005
 total augmentation occupancy for first ion, spin component:           1
  2.000   0.000   0.000   0.000   0.000   0.000   0.000   0.000
  0.000   0.000   0.000   0.000   0.000   0.000   0.000   0.000
  0.000   0.000   0.667   0.000   0.000   0.000   0.000   0.000
  0.000   0.000   0.000   0.667   0.000   0.000   0.000   0.000
  0.000   0.000   0.000   0.000   0.667   0.000   0.000   0.000
  0.000   0.000   0.000   0.000   0.000   0.000   0.000   0.000
  0.000   0.000   0.000   0.000   0.000   0.000   0.000   0.000
  0.000   0.000   0.000   0.000   0.000   0.000   0.000   0.000


----------------------------------------- Iteration    1(   4)  ---------------------------------------


     EDDAV:  cpu time    2.02: real time    2.02
       DOS:  cpu time    0.00: real time    0.00
    --------------------------------------------
      LOOP:  cpu time    2.02: real time    2.03

 eigenvalue-minimisations  :   192
 total energy-change (2. order) :-0.3546300E-03  (-0.3546300E-03)
 number of electron      32.0000000 magnetization 
 augmentation part       32.0000000 magnetization 

 Free energy of the ion-electron system (eV)
  ---------------------------------------------------
  alpha Z        PSCENC =        12.68944982
  Ewald energy   TEWEN  =      -907.56838581
  -1/2 Hartree   DENC   =       -45.63554645
  -exchange  EXHF       =         0.00000000
  -V(xc)+E(xc)   XCENC  =       -76.79674213
  PAW double counting   =       265.93453375     -123.69690146
  entropy T*S    EENTRO =         0.00000000
  eigenvalues    EBANDS =        14.08138240
  atomic energy  EATOM  =       826.37398168
  ---------------------------------------------------
  free energy    TOTEN  =       -34.61822820 eV

  energy without entropy =      -34.61822820  energy(sigma->0) =      -34.61822820


--------------------------------------------------------------------------------------------------------




 average (electrostatic) potential at core
  the test charge radii are     0.9892
  (the norm of the test charge is              1.0000)
       1 -84.3502       2 -84.3522       3 -84.3495       4 -84.3524       5 -84.3508
       6 -84.3468       7 -84.3520       8 -84.3511
 
 
 
 E-fermi :   5.2009     XC(G=0):  -9.5533     alpha+bet :-11.7379


 k-point   1 :       0.0000    0.0000    0.0000
  band No.  band energies     occupation 
      1      -6.6371      2.00000
      2      -2.6417      2.00000
      3      -2.6357      2.00000
      4      -2.6331      2.00000
      5      -2.6301      2.00000
      6      -2.6258      2.00000
      7      -2.6217      2.00000
      8       2.3729      2.00000
      9       2.3751      2.00000
     10       2.3770      2.00000
     11       2.3787      2.00000
     12       2.3798      2.00000
     13       2.3827      2.00000
     14       5.0569      2.00000
     15       5.0656      2.00000
     16       5.0773      2.00000
     17       6.1454      0.00000
     18       6.1500      0.00000
     19       6.1534      0.00000
     20       6.1543      0.00000
     21       6.1559      0.00000
     22       6.1603      0.00000
     23       7.8436      0.00000
     24       7.8500      0.00000
     25       7.8549      0.00000
     26       8.1178      0.00000
     27      13.1838      0.00000
     28      13.1838      0.00000
     29      13.2692      0.00000
     30      15.0793      0.00000
     31      15.0819      0.00000
     32      15.0835      0.00000
     33      15.0868      0.00000
     34      15.0882      0.00000
     35      15.0891      0.00000
     36      16.3036      0.00000
     37      16.3041      0.00000
     38      16.3080      0.00000
     39      16.3146      0.00000
     40      16.3156      0.00000
     41      16.3170      0.00000
     42      16.6977      0.00000
     43      16.7049      0.00000
     44      16.7103      0.00000
     45      17.8726      0.00000
     46      17.8800      0.00000
     47      17.8893      0.00000
     48      17.8933      0.00000


--------------------------------------------------------------------------------------------------------


 soft charge-density along one line, spin component           1
         0         1         2         3         4         5         6         7         8         9
 total charge-density along one line
 
 pseudopotential strength for first ion, spin component:           1
 18.662   0.000   0.000   0.000   0.000   0.000   0.000   0.000
  0.000   0.006   0.000   0.000   0.000   0.000   0.000   0.000
  0.000   0.000   4.216   0.000   0.000  -0.004   0.000   0.000
  0.000   0.000   0.000   4.216   0.000   0.000  -0.004   0.000
  0.000   0.000   0.000   0.000   4.216   0.000   0.000  -0.004
  0.000   0.000  -0.004   0.000   0.000   0.005   0.000   0.000
  0.000   0.000   0.000  -0.004   0.000   0.000   0.005   0.000
  0.000   0.000   0.000   0.000  -0.004   0.000   0.000   0.005
 total augmentation occupancy for first ion, spin component:           1
  2.000   0.000   0.000   0.000   0.000   0.000   0.000   0.000
  0.000   0.000   0.000   0.000   0.000   0.000   0.000   0.000
  0.000   0.000   0.667   0.000   0.000   0.000   0.000   0.000
  0.000   0.000   0.000   0.667   0.000   0.000   0.000   0.000
  0.000   0.000   0.000   0.000   0.667   0.000   0.000   0.000
  0.000   0.000   0.000   0.000   0.000   0.000   0.000   0.000
  0.000   0.000   0.000   0.000   0.000   0.000   0.000   0.000
  0.000   0.000   0.000   0.000   0.000   0.000   0.000   0.000


----------------------------------------- Iteration    1(   5)  ---------------------------------------


     EDDAV:  cpu time    0.39: real time    0.39
       DOS:  cpu time    0.00: real time    0.00
    CHARGE:  cpu time    0.02: real time    0.02
    MIXING:  cpu time    0.00: real time    0.00
    --------------------------------------------
      LOOP:  cpu time    0.43: real time    0.43

 eigenvalue-minimisations  :    96
 total energy-change (2. order) :-0.3041805E-08  (-0.3043974E-08)
 number of electron      31.9999999 magnetization 
 augmentation part       -1.8053297 magnetization 

 Broyden mixing:
  rms(total) = 0.79306E+00    rms(broyden)= 0.79301E+00
  rms(prec ) = 0.15229E+01
  weight for this iteration     100.00

 Free energy of the ion-electron system (eV)
  ---------------------------------------------------
  alpha Z        PSCENC =        12.68944982
  Ewald energy   TEWEN  =      -907.56838581
  -1/2 Hartree   DENC   =       -45.63554645
  -exchange  EXHF       =         0.00000000
  -V(xc)+E(xc)   XCENC  =       -76.79674213
  PAW double counting   =       265.93453375     -123.69690146
  entropy T*S    EENTRO =         0.00000000
  eigenvalues    EBANDS =        14.08138239
  atomic energy  EATOM  =       826.37398168
  ---------------------------------------------------
  free energy    TOTEN  =       -34.61822821 eV

  energy without entropy =      -34.61822821  energy(sigma->0) =      -34.61822821


--------------------------------------------------------------------------------------------------------




 average (electrostatic) potential at core
  the test charge radii are     0.9892
  (the norm of the test charge is              1.0000)
       1 -84.3502       2 -84.3522       3 -84.3495       4 -84.3524       5 -84.3508
       6 -84.3468       7 -84.3520       8 -84.3511
 
 
 
 E-fermi :   5.1967     XC(G=0):  -9.5533     alpha+bet :-11.7379


 k-point   1 :       0.0000    0.0000    0.0000
  band No.  band energies     occupation 
      1      -6.6371      2.00000
      2      -2.6417      2.00000
      3      -2.6357      2.00000
      4      -2.6331      2.00000
      5      -2.6301      2.00000
      6      -2.6258      2.00000
      7      -2.6217      2.00000
      8       2.3729      2.00000
      9       2.3751      2.00000
     10       2.3770      2.00000
     11       2.3787      2.00000
     12       2.3798      2.00000
     13       2.3827      2.00000
     14       5.0569      2.00000
     15       5.0656      2.00000
     16       5.0773      2.00000
     17       6.1454      0.00000
     18       6.1500      0.00000
     19       6.1534      0.00000
     20       6.1543      0.00000
     21       6.1559      0.00000
     22       6.1603      0.00000
     23       7.8436      0.00000
     24       7.8500      0.00000
     25       7.8549      0.00000
     26       8.1178      0.00000
     27      13.1838      0.00000
     28      13.1838      0.00000
     29      13.2692      0.00000
     30      15.0793      0.00000
     31      15.0819      0.00000
     32      15.0834      0.00000
     33      15.0868      0.00000
     34      15.0881      0.00000
     35      15.0891      0.00000
     36      16.3034      0.00000
     37      16.3035      0.00000
     38      16.3077      0.00000
     39      16.3142      0.00000
     40      16.3154      0.00000
     41      16.3168      0.00000
     42      16.6976      0.00000
     43      16.7048      0.00000
     44      16.7101      0.00000
     45      17.8684      0.00000
     46      17.8773      0.00000
     47      17.8809      0.00000
     48      17.8847      0.00000


--------------------------------------------------------------------------------------------------------


 soft charge-density along one line, spin component           1
         0         1         2         3         4         5         6         7         8         9
 total charge-density along one line
 
 pseudopotential strength for first ion, spin component:           1
 18.662   0.000   0.000   0.000   0.000   0.000   0.000   0.000
  0.000   0.006   0.000   0.000   0.000   0.000   0.000   0.000
  0.000   0.000   4.216   0.000   0.000  -0.004   0.000   0.000
  0.000   0.000   0.000   4.216   0.000   0.000  -0.004   0.000
  0.000   0.000   0.000   0.000   4.216   0.000   0.000  -0.004
  0.000   0.000  -0.004   0.000   0.000   0.005   0.000   0.000
  0.000   0.000   0.000  -0.004   0.000   0.000   0.005   0.000
  0.000   0.000   0.000   0.000  -0.004   0.000   0.000   0.005
 total augmentation occupancy for first ion, spin component:           1
  1.380  -1.051   0.000   0.001   0.001  -0.001  -0.001  -0.001
 -1.051   0.918  -0.001  -0.001   0.000   0.001   0.002   0.000
  0.000  -0.001   1.165   0.001   0.001  -0.758  -0.002  -0.001
  0.001  -0.001   0.001   1.165   0.000  -0.002  -0.758   0.000
  0.001   0.000   0.001   0.000   1.164  -0.001   0.000  -0.758
 -0.001   0.001  -0.758  -0.002  -0.001   0.569   0.002   0.001
 -0.001   0.002  -0.002  -0.758   0.000   0.002   0.570   0.000
 -0.001   0.000  -0.001   0.000  -0.758   0.001   0.000   0.569


----------------------------------------- Iteration    1(   6)  ---------------------------------------


    POTLOK:  cpu time    0.02: real time    0.02
    SETDIJ:  cpu time    0.02: real time    0.02
    EDDIAG:  cpu time    0.03: real time    0.03
  RMM-DIIS:  cpu time    0.02: real time    0.02
    ORTHCH:  cpu time    0.01: real time    0.01
       DOS:  cpu time    0.00: real time    0.00
    CHARGE:  cpu time    0.02: real time    0.02
    MIXING:  cpu time    0.00: real time    0.00
    --------------------------------------------
      LOOP:  cpu time    0.13: real time    0.14

 eigenvalue-minimisations  :    96
 total energy-change (2. order) : 0.1001679E+01  (-0.3198108E-01)
 number of electron      31.9999999 magnetization 
 augmentation part       -1.7684005 magnetization 

 Broyden mixing:
  rms(total) = 0.47399E+00    rms(broyden)= 0.47399E+00
  rms(prec ) = 0.91066E+00
  weight for this iteration     100.00

 eigenvalues of (default mixing * dielectric matrix)
  average eigenvalue GAMMA=   2.4573
  2.4573

 Free energy of the ion-electron system (eV)
  ---------------------------------------------------
  alpha Z        PSCENC =        12.68944982
  Ewald energy   TEWEN  =      -907.56838581
  -1/2 Hartree   DENC   =       -54.68204839
  -exchange  EXHF       =         0.00000000
  -V(xc)+E(xc)   XCENC  =       -75.44943021
  PAW double counting   =       286.06045125     -144.35875416
  entropy T*S    EENTRO =         0.00000000
  eigenvalues    EBANDS =        23.31818701
  atomic energy  EATOM  =       826.37398168
  ---------------------------------------------------
  free energy    TOTEN  =       -33.61654881 eV

  energy without entropy =      -33.61654881  energy(sigma->0) =      -33.61654881


--------------------------------------------------------------------------------------------------------




 average (electrostatic) potential at core
  the test charge radii are     0.9892
  (the norm of the test charge is              1.0000)
       1 -83.8326       2 -83.8336       3 -83.8323       4 -83.8337       5 -83.8329
       6 -83.8309       7 -83.8335       8 -83.8330
 
 
 
 E-fermi :   5.5596     XC(G=0):  -9.4504     alpha+bet :-11.7379


 k-point   1 :       0.0000    0.0000    0.0000
  band No.  band energies     occupation 
      1      -6.3787      2.00000
      2      -2.3418      2.00000
      3      -2.3364      2.00000
      4      -2.3336      2.00000
      5      -2.3315      2.00000
      6      -2.3277      2.00000
      7      -2.3236      2.00000
      8       2.6343      2.00000
      9       2.6364      2.00000
     10       2.6381      2.00000
     11       2.6397      2.00000
     12       2.6406      2.00000
     13       2.6432      2.00000
     14       5.3905      2.00000
     15       5.3990      2.00000
     16       5.4105      2.00000
     17       6.2605      0.00000
     18       6.2647      0.00000
     19       6.2682      0.00000
     20       6.2683      0.00000
     21       6.2699      0.00000
     22       6.2743      0.00000
     23       8.0508      0.00000
     24       8.0574      0.00000
     25       8.0623      0.00000
     26       8.4862      0.00000
     27      13.3050      0.00000
     28      13.3569      0.00000
     29      13.3569      0.00000
     30      15.3759      0.00000
     31      15.3782      0.00000
     32      15.3796      0.00000
     33      15.3827      0.00000
     34      15.3841      0.00000
     35      15.3850      0.00000
     36      16.5398      0.00000
     37      16.5400      0.00000
     38      16.5438      0.00000
     39      16.5496      0.00000
     40      16.5508      0.00000
     41      16.5521      0.00000
     42      16.7421      0.00000
     43      16.7494      0.00000
     44      16.7548      0.00000
     45      18.1586      0.00000
     46      18.1663      0.00000
     47      18.1691      0.00000
     48      18.1730      0.00000


--------------------------------------------------------------------------------------------------------


 soft charge-density along one line, spin component           1
         0         1         2         3         4         5         6         7         8         9
 total charge-density along one line
 
 pseudopotential strength for first ion, spin component:           1
 18.635  -0.001   0.000   0.000   0.000   0.000   0.000   0.000
 -0.001   0.006   0.000   0.000   0.000   0.000   0.000   0.000
  0.000   0.000   4.221   0.000   0.000  -0.004   0.000   0.000
  0.000   0.000   0.000   4.221   0.000   0.000  -0.004   0.000
  0.000   0.000   0.000   0.000   4.221   0.000   0.000  -0.004
  0.000   0.000  -0.004   0.000   0.000   0.005   0.000   0.000
  0.000   0.000   0.000  -0.004   0.000   0.000   0.005   0.000
  0.000   0.000   0.000   0.000  -0.004   0.000   0.000   0.005
 total augmentation occupancy for first ion, spin component:           1
  1.351  -1.090   0.000   0.001   0.001  -0.001  -0.002  -0.001
 -1.090   0.997  -0.001   0.000   0.000   0.001   0.002   0.001
  0.000  -0.001   1.147   0.001   0.001  -0.782  -0.002  -0.001
  0.001   0.000   0.001   1.147   0.000  -0.002  -0.782   0.000
  0.001   0.000   0.001   0.000   1.146  -0.001   0.000  -0.781
 -0.001   0.001  -0.782  -0.002  -0.001   0.608   0.002   0.001
 -0.002   0.002  -0.002  -0.782   0.000   0.002   0.608   0.000
 -0.001   0.001  -0.001   0.000  -0.781   0.001   0.000   0.608


----------------------------------------- Iteration    1(   7)  ---------------------------------------


    POTLOK:  cpu time    0.02: real time    0.02
    SETDIJ:  cpu time    0.02: real time    0.02
    EDDIAG:  cpu time    0.02: real time    0.02
  RMM-DIIS:  cpu time    0.03: real time    0.03
    ORTHCH:  cpu time    0.01: real time    0.01
       DOS:  cpu time    0.00: real time    0.00
    CHARGE:  cpu time    0.02: real time    0.02
    MIXING:  cpu time    0.00: real time    0.00
    --------------------------------------------
      LOOP:  cpu time    0.12: real time    0.13

 eigenvalue-minimisations  :    96
 total energy-change (2. order) : 0.4246429E+00  (-0.7388367E-01)
 number of electron      31.9999999 magnetization 
 augmentation part       -1.7214449 magnetization 

 Broyden mixing:
  rms(total) = 0.46257E-01    rms(broyden)= 0.46247E-01
  rms(prec ) = 0.78464E-01
  weight for this iteration     100.00

 eigenvalues of (default mixing * dielectric matrix)
  average eigenvalue GAMMA=   2.5305
  2.5305  2.5305

 Free energy of the ion-electron system (eV)
  ---------------------------------------------------
  alpha Z        PSCENC =        12.68944982
  Ewald energy   TEWEN  =      -907.56838581
  -1/2 Hartree   DENC   =       -70.51301068
  -exchange  EXHF       =         0.00000000
  -V(xc)+E(xc)   XCENC  =       -73.00927480
  PAW double counting   =       313.72401954     -172.73601671
  entropy T*S    EENTRO =         0.00000000
  eigenvalues    EBANDS =        37.84733103
  atomic energy  EATOM  =       826.37398168
  ---------------------------------------------------
  free energy    TOTEN  =       -33.19190593 eV

  energy without entropy =      -33.19190593  energy(sigma->0) =      -33.19190593


--------------------------------------------------------------------------------------------------------




 average (electrostatic) potential at core
  the test charge radii are     0.9892
  (the norm of the test charge is              1.0000)
       1 -83.1452       2 -83.1461       3 -83.1453       4 -83.1460       5 -83.1457
       6 -83.1445       7 -83.1456       8 -83.1459
 
 
 
 E-fermi :   6.0965     XC(G=0):  -9.2018     alpha+bet :-11.7379


 k-point   1 :       0.0000    0.0000    0.0000
  band No.  band energies     occupation 
      1      -5.9621      2.00000
      2      -1.8746      2.00000
      3      -1.8696      2.00000
      4      -1.8668      2.00000
      5      -1.8654      2.00000
      6      -1.8619      2.00000
      7      -1.8577      2.00000
      8       3.0473      2.00000
      9       3.0493      2.00000
     10       3.0507      2.00000
     11       3.0523      2.00000
     12       3.0529      2.00000
     13       3.0553      2.00000
     14       5.9154      2.00000
     15       5.9236      2.00000
     16       5.9348      2.00000
     17       6.5195      0.00000
     18       6.5233      0.00000
     19       6.5264      0.00000
     20       6.5268      0.00000
     21       6.5279      0.00000
     22       6.5322      0.00000
     23       8.3759      0.00000
     24       8.3826      0.00000
     25       8.3876      0.00000
     26       9.0452      0.00000
     27      13.6013      0.00000
     28      13.6204      0.00000
     29      13.6204      0.00000
     30      15.8262      0.00000
     31      15.8283      0.00000
     32      15.8297      0.00000
     33      15.8325      0.00000
     34      15.8338      0.00000
     35      15.8348      0.00000
     36      16.8968      0.00000
     37      16.9042      0.00000
     38      16.9096      0.00000
     39      16.9596      0.00000
     40      16.9600      0.00000
     41      16.9632      0.00000
     42      16.9684      0.00000
     43      16.9695      0.00000
     44      16.9706      0.00000
     45      18.6589      0.00000
     46      18.6644      0.00000
     47      18.6688      0.00000
     48      18.6745      0.00000


--------------------------------------------------------------------------------------------------------


 soft charge-density along one line, spin component           1
         0         1         2         3         4         5         6         7         8         9
 total charge-density along one line
 
 pseudopotential strength for first ion, spin component:           1
 18.596  -0.001   0.000   0.000   0.000   0.000   0.000   0.000
 -0.001   0.006   0.000   0.000   0.000   0.000   0.000   0.000
  0.000   0.000   4.227   0.000   0.000  -0.005   0.000   0.000
  0.000   0.000   0.000   4.227   0.000   0.000  -0.005   0.000
  0.000   0.000   0.000   0.000   4.227   0.000   0.000  -0.005
  0.000   0.000  -0.005   0.000   0.000   0.005   0.000   0.000
  0.000   0.000   0.000  -0.005   0.000   0.000   0.005   0.000
  0.000   0.000   0.000   0.000  -0.005   0.000   0.000   0.005
 total augmentation occupancy for first ion, spin component:           1
  1.315  -1.112   0.001   0.002   0.000  -0.001  -0.002  -0.001
 -1.112   1.058   0.000   0.000  -0.001   0.001   0.002   0.001
  0.001   0.000   1.122   0.000   0.001  -0.805  -0.001  -0.001
  0.002   0.000   0.000   1.122   0.001  -0.001  -0.805   0.000
  0.000  -0.001   0.001   0.001   1.122  -0.001   0.000  -0.804
 -0.001   0.001  -0.805  -0.001  -0.001   0.652   0.002   0.001
 -0.002   0.002  -0.001  -0.805   0.000   0.002   0.651   0.000
 -0.001   0.001  -0.001   0.000  -0.804   0.001   0.000   0.651


----------------------------------------- Iteration    1(   8)  ---------------------------------------


    POTLOK:  cpu time    0.02: real time    0.02
    SETDIJ:  cpu time    0.02: real time    0.02
    EDDIAG:  cpu time    0.02: real time    0.02
  RMM-DIIS:  cpu time    0.02: real time    0.03
    ORTHCH:  cpu time    0.01: real time    0.01
       DOS:  cpu time    0.00: real time    0.00
    CHARGE:  cpu time    0.02: real time    0.02
    MIXING:  cpu time    0.00: real time    0.00
    --------------------------------------------
      LOOP:  cpu time    0.12: real time    0.13

 eigenvalue-minimisations  :    96
 total energy-change (2. order) :-0.3198492E-01  (-0.2164189E-02)
 number of electron      31.9999999 magnetization 
 augmentation part       -1.7275451 magnetization 

 Broyden mixing:
  rms(total) = 0.74883E-02    rms(broyden)= 0.74878E-02
  rms(prec ) = 0.17955E-01
  weight for this iteration     100.00

 eigenvalues of (default mixing * dielectric matrix)
  average eigenvalue GAMMA=   2.1195
  1.2690  2.8629  2.2266

 Free energy of the ion-electron system (eV)
  ---------------------------------------------------
  alpha Z        PSCENC =        12.68944982
  Ewald energy   TEWEN  =      -907.56838581
  -1/2 Hartree   DENC   =       -70.39722098
  -exchange  EXHF       =         0.00000000
  -V(xc)+E(xc)   XCENC  =       -72.96577154
  PAW double counting   =       307.35687634     -166.18392362
  entropy T*S    EENTRO =         0.00000000
  eigenvalues    EBANDS =        37.47110326
  atomic energy  EATOM  =       826.37398168
  ---------------------------------------------------
  free energy    TOTEN  =       -33.22389085 eV

  energy without entropy =      -33.22389085  energy(sigma->0) =      -33.22389085


--------------------------------------------------------------------------------------------------------




 average (electrostatic) potential at core
  the test charge radii are     0.9892
  (the norm of the test charge is              1.0000)
       1 -83.2481       2 -83.2498       3 -83.2478       4 -83.2499       5 -83.2488
       6 -83.2457       7 -83.2495       8 -83.2490
 
 
 
 E-fermi :   6.0355     XC(G=0):  -9.1504     alpha+bet :-11.7379


 k-point   1 :       0.0000    0.0000    0.0000
  band No.  band energies     occupation 
      1      -5.9632      2.00000
      2      -1.8867      2.00000
      3      -1.8814      2.00000
      4      -1.8786      2.00000
      5      -1.8768      2.00000
      6      -1.8731      2.00000
      7      -1.8689      2.00000
      8       3.0356      2.00000
      9       3.0377      2.00000
     10       3.0391      2.00000
     11       3.0408      2.00000
     12       3.0415      2.00000
     13       3.0440      2.00000
     14       5.8992      2.00000
     15       5.9075      2.00000
     16       5.9187      2.00000
     17       6.5701      0.00000
     18       6.5740      0.00000
     19       6.5771      0.00000
     20       6.5778      0.00000
     21       6.5791      0.00000
     22       6.5834      0.00000
     23       8.3652      0.00000
     24       8.3719      0.00000
     25       8.3769      0.00000
     26       9.0381      0.00000
     27      13.6064      0.00000
     28      13.6065      0.00000
     29      13.7784      0.00000
     30      15.8112      0.00000
     31      15.8137      0.00000
     32      15.8152      0.00000
     33      15.8179      0.00000
     34      15.8192      0.00000
     35      15.8201      0.00000
     36      16.9339      0.00000
     37      16.9412      0.00000
     38      16.9466      0.00000
     39      16.9657      0.00000
     40      16.9662      0.00000
     41      16.9696      0.00000
     42      16.9749      0.00000
     43      16.9761      0.00000
     44      16.9772      0.00000
     45      18.6953      0.00000
     46      18.7023      0.00000
     47      18.7065      0.00000
     48      18.7128      0.00000


--------------------------------------------------------------------------------------------------------


 soft charge-density along one line, spin component           1
         0         1         2         3         4         5         6         7         8         9
 total charge-density along one line
 
 pseudopotential strength for first ion, spin component:           1
 18.599  -0.001   0.000   0.000   0.000   0.000   0.000   0.000
 -0.001   0.006   0.000   0.000   0.000   0.000   0.000   0.000
  0.000   0.000   4.224   0.000   0.000  -0.005   0.000   0.000
  0.000   0.000   0.000   4.224   0.000   0.000  -0.005   0.000
  0.000   0.000   0.000   0.000   4.224   0.000   0.000  -0.005
  0.000   0.000  -0.005   0.000   0.000   0.005   0.000   0.000
  0.000   0.000   0.000  -0.005   0.000   0.000   0.005   0.000
  0.000   0.000   0.000   0.000  -0.005   0.000   0.000   0.005
 total augmentation occupancy for first ion, spin component:           1
  1.320  -1.092   0.001   0.002   0.000  -0.001  -0.002  -0.001
 -1.092   1.020   0.000   0.000  -0.001   0.001   0.002   0.001
  0.001   0.000   1.123   0.000   0.001  -0.801  -0.002  -0.001
  0.002   0.000   0.000   1.124   0.001  -0.001  -0.801   0.000
  0.000  -0.001   0.001   0.001   1.123  -0.001   0.000  -0.800
 -0.001   0.001  -0.801  -0.001  -0.001   0.647   0.002   0.001
 -0.002   0.002  -0.002  -0.801   0.000   0.002   0.647   0.000
 -0.001   0.001  -0.001   0.000  -0.800   0.001   0.000   0.646


----------------------------------------- Iteration    1(   9)  ---------------------------------------


    POTLOK:  cpu time    0.02: real time    0.02
    SETDIJ:  cpu time    0.03: real time    0.03
    EDDIAG:  cpu time    0.02: real time    0.02
  RMM-DIIS:  cpu time    0.03: real time    0.03
    ORTHCH:  cpu time    0.01: real time    0.01
       DOS:  cpu time    0.00: real time    0.00
    CHARGE:  cpu time    0.02: real time    0.02
    MIXING:  cpu time    0.00: real time    0.00
    --------------------------------------------
      LOOP:  cpu time    0.13: real time    0.13

 eigenvalue-minimisations  :   108
 total energy-change (2. order) :-0.1123955E-02  (-0.1258300E-03)
 number of electron      31.9999999 magnetization 
 augmentation part       -1.7274597 magnetization 

 Broyden mixing:
  rms(total) = 0.41707E-02    rms(broyden)= 0.41706E-02
  rms(prec ) = 0.68421E-02
  weight for this iteration     100.00

 eigenvalues of (default mixing * dielectric matrix)
  average eigenvalue GAMMA=   2.3224
  0.9916  3.3076  2.7056  2.2847

 Free energy of the ion-electron system (eV)
  ---------------------------------------------------
  alpha Z        PSCENC =        12.68944982
  Ewald energy   TEWEN  =      -907.56838581
  -1/2 Hartree   DENC   =       -70.79381335
  -exchange  EXHF       =         0.00000000
  -V(xc)+E(xc)   XCENC  =       -72.90659296
  PAW double counting   =       307.71275324     -166.55034936
  entropy T*S    EENTRO =         0.00000000
  eigenvalues    EBANDS =        37.81794193
  atomic energy  EATOM  =       826.37398168
  ---------------------------------------------------
  free energy    TOTEN  =       -33.22501481 eV

  energy without entropy =      -33.22501481  energy(sigma->0) =      -33.22501481


--------------------------------------------------------------------------------------------------------




 average (electrostatic) potential at core
  the test charge radii are     0.9892
  (the norm of the test charge is              1.0000)
       1 -83.2339       2 -83.2351       3 -83.2336       4 -83.2353       5 -83.2343
       6 -83.2320       7 -83.2351       8 -83.2345
 
 
 
 E-fermi :   6.0503     XC(G=0):  -9.1363     alpha+bet :-11.7379


 k-point   1 :       0.0000    0.0000    0.0000
  band No.  band energies     occupation 
      1      -5.9519      2.00000
      2      -1.8753      2.00000
      3      -1.8702      2.00000
      4      -1.8673      2.00000
      5      -1.8657      2.00000
      6      -1.8621      2.00000
      7      -1.8579      2.00000
      8       3.0455      2.00000
      9       3.0476      2.00000
     10       3.0490      2.00000
     11       3.0506      2.00000
     12       3.0513      2.00000
     13       3.0537      2.00000
     14       5.9113      2.00000
     15       5.9196      2.00000
     16       5.9308      2.00000
     17       6.5840      0.00000
     18       6.5880      0.00000
     19       6.5911      0.00000
     20       6.5919      0.00000
     21       6.5931      0.00000
     22       6.5974      0.00000
     23       8.3729      0.00000
     24       8.3795      0.00000
     25       8.3845      0.00000
     26       9.0526      0.00000
     27      13.6117      0.00000
     28      13.6117      0.00000
     29      13.8105      0.00000
     30      15.8219      0.00000
     31      15.8242      0.00000
     32      15.8256      0.00000
     33      15.8284      0.00000
     34      15.8297      0.00000
     35      15.8306      0.00000
     36      16.9439      0.00000
     37      16.9511      0.00000
     38      16.9566      0.00000
     39      16.9779      0.00000
     40      16.9784      0.00000
     41      16.9818      0.00000
     42      16.9870      0.00000
     43      16.9882      0.00000
     44      16.9892      0.00000
     45      18.7132      0.00000
     46      18.7205      0.00000
     47      18.7246      0.00000
     48      18.7313      0.00000


--------------------------------------------------------------------------------------------------------


 soft charge-density along one line, spin component           1
         0         1         2         3         4         5         6         7         8         9
 total charge-density along one line
 
 pseudopotential strength for first ion, spin component:           1
 18.598  -0.001   0.000   0.000   0.000   0.000   0.000   0.000
 -0.001   0.006   0.000   0.000   0.000   0.000   0.000   0.000
  0.000   0.000   4.224   0.000   0.000  -0.005   0.000   0.000
  0.000   0.000   0.000   4.224   0.000   0.000  -0.005   0.000
  0.000   0.000   0.000   0.000   4.224   0.000   0.000  -0.005
  0.000   0.000  -0.005   0.000   0.000   0.005   0.000   0.000
  0.000   0.000   0.000  -0.005   0.000   0.000   0.005   0.000
  0.000   0.000   0.000   0.000  -0.005   0.000   0.000   0.005
 total augmentation occupancy for first ion, spin component:           1
  1.320  -1.087   0.001   0.002   0.000  -0.001  -0.002  -0.001
 -1.087   1.012   0.000   0.000  -0.001   0.001   0.002   0.001
  0.001   0.000   1.123   0.000   0.001  -0.800  -0.002  -0.001
  0.002   0.000   0.000   1.123   0.001  -0.001  -0.801   0.000
  0.000  -0.001   0.001   0.001   1.122  -0.001   0.000  -0.800
 -0.001   0.001  -0.800  -0.001  -0.001   0.647   0.002   0.001
 -0.002   0.002  -0.002  -0.801   0.000   0.002   0.647   0.000
 -0.001   0.001  -0.001   0.000  -0.800   0.001   0.000   0.646


----------------------------------------- Iteration    1(  10)  ---------------------------------------


    POTLOK:  cpu time    0.02: real time    0.02
    SETDIJ:  cpu time    0.02: real time    0.02
    EDDIAG:  cpu time    0.02: real time    0.02
  RMM-DIIS:  cpu time    0.03: real time    0.03
    ORTHCH:  cpu time    0.01: real time    0.01
       DOS:  cpu time    0.00: real time    0.00
    CHARGE:  cpu time    0.02: real time    0.02
    MIXING:  cpu time    0.00: real time    0.00
    --------------------------------------------
      LOOP:  cpu time    0.12: real time    0.13

 eigenvalue-minimisations  :   104
 total energy-change (2. order) :-0.1849942E-03  (-0.2603647E-04)
 number of electron      31.9999999 magnetization 
 augmentation part       -1.7273209 magnetization 

 Broyden mixing:
  rms(total) = 0.57714E-03    rms(broyden)= 0.57678E-03
  rms(prec ) = 0.10895E-02
  weight for this iteration     100.00

 eigenvalues of (default mixing * dielectric matrix)
  average eigenvalue GAMMA=   2.0310
  3.0973  2.6276  2.1778  0.9766  1.2755

 Free energy of the ion-electron system (eV)
  ---------------------------------------------------
  alpha Z        PSCENC =        12.68944982
  Ewald energy   TEWEN  =      -907.56838581
  -1/2 Hartree   DENC   =       -70.84902282
  -exchange  EXHF       =         0.00000000
  -V(xc)+E(xc)   XCENC  =       -72.90970524
  PAW double counting   =       307.80862448     -166.65280308
  entropy T*S    EENTRO =         0.00000000
  eigenvalues    EBANDS =        37.88266117
  atomic energy  EATOM  =       826.37398168
  ---------------------------------------------------
  free energy    TOTEN  =       -33.22519980 eV

  energy without entropy =      -33.22519980  energy(sigma->0) =      -33.22519980


--------------------------------------------------------------------------------------------------------




 average (electrostatic) potential at core
  the test charge radii are     0.9892
  (the norm of the test charge is              1.0000)
       1 -83.2250       2 -83.2258       3 -83.2248       4 -83.2259       5 -83.2253
       6 -83.2236       7 -83.2258       8 -83.2254
 
 
 
 E-fermi :   6.0550     XC(G=0):  -9.1305     alpha+bet :-11.7379


 k-point   1 :       0.0000    0.0000    0.0000
  band No.  band energies     occupation 
      1      -5.9494      2.00000
      2      -1.8731      2.00000
      3      -1.8680      2.00000
      4      -1.8651      2.00000
      5      -1.8636      2.00000
      6      -1.8601      2.00000
      7      -1.8559      2.00000
      8       3.0473      2.00000
      9       3.0493      2.00000
     10       3.0508      2.00000
     11       3.0523      2.00000
     12       3.0530      2.00000
     13       3.0554      2.00000
     14       5.9135      2.00000
     15       5.9218      2.00000
     16       5.9330      2.00000
     17       6.5896      0.00000
     18       6.5935      0.00000
     19       6.5966      0.00000
     20       6.5974      0.00000
     21       6.5986      0.00000
     22       6.6029      0.00000
     23       8.3739      0.00000
     24       8.3805      0.00000
     25       8.3855      0.00000
     26       9.0564      0.00000
     27      13.6117      0.00000
     28      13.6117      0.00000
     29      13.8270      0.00000
     30      15.8239      0.00000
     31      15.8261      0.00000
     32      15.8275      0.00000
     33      15.8303      0.00000
     34      15.8316      0.00000
     35      15.8326      0.00000
     36      16.9481      0.00000
     37      16.9553      0.00000
     38      16.9607      0.00000
     39      16.9807      0.00000
     40      16.9812      0.00000
     41      16.9846      0.00000
     42      16.9897      0.00000
     43      16.9909      0.00000
     44      16.9920      0.00000
     45      18.7209      0.00000
     46      18.7275      0.00000
     47      18.7319      0.00000
     48      18.7384      0.00000


--------------------------------------------------------------------------------------------------------


 soft charge-density along one line, spin component           1
         0         1         2         3         4         5         6         7         8         9
 total charge-density along one line
 
 pseudopotential strength for first ion, spin component:           1
 18.597  -0.001   0.000   0.000   0.000   0.000   0.000   0.000
 -0.001   0.006   0.000   0.000   0.000   0.000   0.000   0.000
  0.000   0.000   4.224   0.000   0.000  -0.005   0.000   0.000
  0.000   0.000   0.000   4.224   0.000   0.000  -0.005   0.000
  0.000   0.000   0.000   0.000   4.224   0.000   0.000  -0.005
  0.000   0.000  -0.005   0.000   0.000   0.005   0.000   0.000
  0.000   0.000   0.000  -0.005   0.000   0.000   0.005   0.000
  0.000   0.000   0.000   0.000  -0.005   0.000   0.000   0.005
 total augmentation occupancy for first ion, spin component:           1
  1.320  -1.087   0.000   0.002   0.000  -0.001  -0.002  -0.001
 -1.087   1.012   0.000   0.000  -0.001   0.001   0.002   0.001
  0.000   0.000   1.123   0.000   0.001  -0.801  -0.002  -0.001
  0.002   0.000   0.000   1.123   0.001  -0.001  -0.801   0.000
  0.000  -0.001   0.001   0.001   1.122  -0.001   0.000  -0.801
 -0.001   0.001  -0.801  -0.001  -0.001   0.648   0.002   0.001
 -0.002   0.002  -0.002  -0.801   0.000   0.002   0.648   0.000
 -0.001   0.001  -0.001   0.000  -0.801   0.001   0.000   0.647


----------------------------------------- Iteration    1(  11)  ---------------------------------------


    POTLOK:  cpu time    0.02: real time    0.02
    SETDIJ:  cpu time    0.02: real time    0.02
    EDDIAG:  cpu time    0.02: real time    0.02
  RMM-DIIS:  cpu time    0.04: real time    0.04
    ORTHCH:  cpu time    0.01: real time    0.01
       DOS:  cpu time    0.00: real time    0.00
    CHARGE:  cpu time    0.02: real time    0.02
    MIXING:  cpu time    0.00: real time    0.00
    --------------------------------------------
      LOOP:  cpu time    0.13: real time    0.14

 eigenvalue-minimisations  :   114
 total energy-change (2. order) : 0.3825077E-05  (-0.4264583E-06)
 number of electron      31.9999999 magnetization 
 augmentation part       -1.7274314 magnetization 

 Broyden mixing:
  rms(total) = 0.14351E-03    rms(broyden)= 0.14346E-03
  rms(prec ) = 0.26939E-03
  weight for this iteration     100.00

 eigenvalues of (default mixing * dielectric matrix)
  average eigenvalue GAMMA=   2.0144
  3.2141  2.7083  2.1104  2.1104  0.9714  0.9714

 Free energy of the ion-electron system (eV)
  ---------------------------------------------------
  alpha Z        PSCENC =        12.68944982
  Ewald energy   TEWEN  =      -907.56838581
  -1/2 Hartree   DENC   =       -70.82768927
  -exchange  EXHF       =         0.00000000
  -V(xc)+E(xc)   XCENC  =       -72.91090106
  PAW double counting   =       307.73602705     -166.57728005
  entropy T*S    EENTRO =         0.00000000
  eigenvalues    EBANDS =        37.85960166
  atomic energy  EATOM  =       826.37398168
  ---------------------------------------------------
  free energy    TOTEN  =       -33.22519598 eV

  energy without entropy =      -33.22519598  energy(sigma->0) =      -33.22519598


--------------------------------------------------------------------------------------------------------




 average (electrostatic) potential at core
  the test charge radii are     0.9892
  (the norm of the test charge is              1.0000)
       1 -83.2274       2 -83.2285       3 -83.2271       4 -83.2286       5 -83.2278
       6 -83.2257       7 -83.2284       8 -83.2279
 
 
 
 E-fermi :   6.0544     XC(G=0):  -9.1314     alpha+bet :-11.7379


 k-point   1 :       0.0000    0.0000    0.0000
  band No.  band energies     occupation 
      1      -5.9501      2.00000
      2      -1.8739      2.00000
      3      -1.8688      2.00000
      4      -1.8659      2.00000
      5      -1.8643      2.00000
      6      -1.8607      2.00000
      7      -1.8566      2.00000
      8       3.0466      2.00000
      9       3.0487      2.00000
     10       3.0501      2.00000
     11       3.0517      2.00000
     12       3.0524      2.00000
     13       3.0548      2.00000
     14       5.9127      2.00000
     15       5.9210      2.00000
     16       5.9322      2.00000
     17       6.5887      0.00000
     18       6.5927      0.00000
     19       6.5957      0.00000
     20       6.5965      0.00000
     21       6.5977      0.00000
     22       6.6021      0.00000
     23       8.3734      0.00000
     24       8.3800      0.00000
     25       8.3850      0.00000
     26       9.0553      0.00000
     27      13.6115      0.00000
     28      13.6115      0.00000
     29      13.8249      0.00000
     30      15.8231      0.00000
     31      15.8253      0.00000
     32      15.8268      0.00000
     33      15.8295      0.00000
     34      15.8309      0.00000
     35      15.8318      0.00000
     36      16.9475      0.00000
     37      16.9547      0.00000
     38      16.9601      0.00000
     39      16.9800      0.00000
     40      16.9804      0.00000
     41      16.9838      0.00000
     42      16.9890      0.00000
     43      16.9902      0.00000
     44      16.9913      0.00000
     45      18.7217      0.00000
     46      18.7272      0.00000
     47      18.7322      0.00000
     48      18.7379      0.00000


--------------------------------------------------------------------------------------------------------


 soft charge-density along one line, spin component           1
         0         1         2         3         4         5         6         7         8         9
 total charge-density along one line
 
 pseudopotential strength for first ion, spin component:           1
 18.597  -0.001   0.000   0.000   0.000   0.000   0.000   0.000
 -0.001   0.006   0.000   0.000   0.000   0.000   0.000   0.000
  0.000   0.000   4.224   0.000   0.000  -0.005   0.000   0.000
  0.000   0.000   0.000   4.224   0.000   0.000  -0.005   0.000
  0.000   0.000   0.000   0.000   4.224   0.000   0.000  -0.005
  0.000   0.000  -0.005   0.000   0.000   0.005   0.000   0.000
  0.000   0.000   0.000  -0.005   0.000   0.000   0.005   0.000
  0.000   0.000   0.000   0.000  -0.005   0.000   0.000   0.005
 total augmentation occupancy for first ion, spin component:           1
  1.320  -1.086   0.000   0.002   0.000  -0.001  -0.002  -0.001
 -1.086   1.011   0.000   0.000  -0.001   0.001   0.002   0.001
  0.000   0.000   1.123   0.000   0.001  -0.801  -0.002  -0.001
  0.002   0.000   0.000   1.123   0.001  -0.001  -0.801   0.000
  0.000  -0.001   0.001   0.001   1.122  -0.001   0.000  -0.801
 -0.001   0.001  -0.801  -0.001  -0.001   0.648   0.002   0.001
 -0.002   0.002  -0.002  -0.801   0.000   0.002   0.648   0.000
 -0.001   0.001  -0.001   0.000  -0.801   0.001   0.000   0.647


----------------------------------------- Iteration    1(  12)  ---------------------------------------


    POTLOK:  cpu time    0.02: real time    0.02
    SETDIJ:  cpu time    0.02: real time    0.02
    EDDIAG:  cpu time    0.02: real time    0.02
  RMM-DIIS:  cpu time    0.04: real time    0.04
    ORTHCH:  cpu time    0.01: real time    0.01
       DOS:  cpu time    0.00: real time    0.00
    CHARGE:  cpu time    0.02: real time    0.02
    MIXING:  cpu time    0.00: real time    0.00
    --------------------------------------------
      LOOP:  cpu time    0.14: real time    0.14

 eigenvalue-minimisations  :   125
 total energy-change (2. order) :-0.3345067E-06  (-0.4315919E-07)
 number of electron      31.9999999 magnetization 
 augmentation part       -1.7274228 magnetization 

 Broyden mixing:
  rms(total) = 0.56617E-04    rms(broyden)= 0.56589E-04
  rms(prec ) = 0.83431E-04
  weight for this iteration     100.00

 eigenvalues of (default mixing * dielectric matrix)
  average eigenvalue GAMMA=   1.9835
  3.1873  2.7314  2.4528  2.1011  1.4563  0.9975  0.9580

 Free energy of the ion-electron system (eV)
  ---------------------------------------------------
  alpha Z        PSCENC =        12.68944982
  Ewald energy   TEWEN  =      -907.56838581
  -1/2 Hartree   DENC   =       -70.83129455
  -exchange  EXHF       =         0.00000000
  -V(xc)+E(xc)   XCENC  =       -72.91087357
  PAW double counting   =       307.73953278     -166.58080723
  entropy T*S    EENTRO =         0.00000000
  eigenvalues    EBANDS =        37.86320057
  atomic energy  EATOM  =       826.37398168
  ---------------------------------------------------
  free energy    TOTEN  =       -33.22519631 eV

  energy without entropy =      -33.22519631  energy(sigma->0) =      -33.22519631


--------------------------------------------------------------------------------------------------------




 average (electrostatic) potential at core
  the test charge radii are     0.9892
  (the norm of the test charge is              1.0000)
       1 -83.2270       2 -83.2281       3 -83.2267       4 -83.2282       5 -83.2274
       6 -83.2252       7 -83.2280       8 -83.2275
 
 
 
 E-fermi :   6.0548     XC(G=0):  -9.1311     alpha+bet :-11.7379


 k-point   1 :       0.0000    0.0000    0.0000
  band No.  band energies     occupation 
      1      -5.9500      2.00000
      2      -1.8738      2.00000
      3      -1.8687      2.00000
      4      -1.8658      2.00000
      5      -1.8642      2.00000
      6      -1.8606      2.00000
      7      -1.8564      2.00000
      8       3.0467      2.00000
      9       3.0488      2.00000
     10       3.0502      2.00000
     11       3.0518      2.00000
     12       3.0525      2.00000
[...]
    MIXING:  cpu time    0.00: real time    0.00
    --------------------------------------------
      LOOP:  cpu time    0.16: real time    0.16

 Broyden mixing:
  rms(total) = 0.64659E-02    rms(broyden)= 0.64656E-02
  rms(prec ) = 0.11056E-01
  weight for this iteration     100.00

 eigenvalues of (default mixing * dielectric matrix)
  average eigenvalue GAMMA=   2.0773
  3.0418  2.4869  1.1245  1.6558

 Free energy of the ion-electron system (eV)
  ---------------------------------------------------
  -1/2 Hartree   DENC   =        -4.61343589
  -V(xc)+E(xc)   XCENC  =         0.94997682
  PAW double counting   =         3.09689115       -3.14619723
  entropy T*S    EENTRO =         0.00000000
  eigenvalues    EBANDS =       -24.52268822
  ---------------------------------------------------
  free energy    TOTEN  =       -28.23545338 eV

  energy without entropy =      -28.23545338


----------------------------------------- Iteration    3(   7)  ---------------------------------------


   POT+DIJ:  cpu time    0.08: real time    0.08
    HAMIL1:  cpu time    0.00: real time    0.00
    LRDIAG:  cpu time    0.01: real time    0.01
    LRDIIS:  cpu time    0.02: real time    0.02
    LRDIAG:  cpu time    0.01: real time    0.01
    MIXING:  cpu time    0.00: real time    0.00
    --------------------------------------------
      LOOP:  cpu time    0.16: real time    0.16

 Broyden mixing:
  rms(total) = 0.52086E-03    rms(broyden)= 0.51988E-03
  rms(prec ) = 0.92046E-03
  weight for this iteration     100.00

 eigenvalues of (default mixing * dielectric matrix)
  average eigenvalue GAMMA=   1.9882
  3.0961  2.3864  1.1184  1.7296  1.6103

 Free energy of the ion-electron system (eV)
  ---------------------------------------------------
  -1/2 Hartree   DENC   =        -4.62330086
  -V(xc)+E(xc)   XCENC  =         0.95687956
  PAW double counting   =         3.06277902       -3.11157355
  entropy T*S    EENTRO =         0.00000000
  eigenvalues    EBANDS =       -24.55632846
  ---------------------------------------------------
  free energy    TOTEN  =       -28.27154429 eV

  energy without entropy =      -28.27154429


----------------------------------------- Iteration    3(   8)  ---------------------------------------


   POT+DIJ:  cpu time    0.08: real time    0.08
    HAMIL1:  cpu time    0.01: real time    0.01
    LRDIAG:  cpu time    0.01: real time    0.01
    LRDIIS:  cpu time    0.02: real time    0.02
    LRDIAG:  cpu time    0.01: real time    0.01
    MIXING:  cpu time    0.00: real time    0.00
    --------------------------------------------
      LOOP:  cpu time    0.16: real time    0.16

 Broyden mixing:
  rms(total) = 0.27741E-03    rms(broyden)= 0.27733E-03
  rms(prec ) = 0.40387E-03
  weight for this iteration     100.00

 eigenvalues of (default mixing * dielectric matrix)
  average eigenvalue GAMMA=   1.9331
  3.0876  2.4942  2.1317  1.6686  1.1083  1.1083

 Free energy of the ion-electron system (eV)
  ---------------------------------------------------
  -1/2 Hartree   DENC   =        -4.62645048
  -V(xc)+E(xc)   XCENC  =         0.95767322
  PAW double counting   =         3.06702447       -3.11588986
  entropy T*S    EENTRO =         0.00000000
  eigenvalues    EBANDS =       -24.55701546
  ---------------------------------------------------
  free energy    TOTEN  =       -28.27465811 eV

  energy without entropy =      -28.27465811


----------------------------------------- Iteration    3(   9)  ---------------------------------------


   POT+DIJ:  cpu time    0.09: real time    0.09
    HAMIL1:  cpu time    0.00: real time    0.01
    LRDIAG:  cpu time    0.01: real time    0.01
    LRDIIS:  cpu time    0.02: real time    0.02
    LRDIAG:  cpu time    0.01: real time    0.01
    MIXING:  cpu time    0.00: real time    0.00
    --------------------------------------------
      LOOP:  cpu time    0.17: real time    0.17

 Broyden mixing:
  rms(total) = 0.86894E-04    rms(broyden)= 0.86872E-04
  rms(prec ) = 0.13422E-03
  weight for this iteration     100.00

 eigenvalues of (default mixing * dielectric matrix)
  average eigenvalue GAMMA=   1.8901
  3.1788  2.7478  2.4058  1.6735  1.2436  1.0992  0.8819

 Free energy of the ion-electron system (eV)
  ---------------------------------------------------
  -1/2 Hartree   DENC   =        -4.62618356
  -V(xc)+E(xc)   XCENC  =         0.95761676
  PAW double counting   =         3.06952634       -3.11843476
  entropy T*S    EENTRO =         0.00000000
  eigenvalues    EBANDS =       -24.55725528
  ---------------------------------------------------
  free energy    TOTEN  =       -28.27473050 eV

  energy without entropy =      -28.27473050


----------------------------------------- Iteration    3(  10)  ---------------------------------------


   POT+DIJ:  cpu time    0.08: real time    0.08
    HAMIL1:  cpu time    0.00: real time    0.01
    LRDIAG:  cpu time    0.01: real time    0.01
    LRDIIS:  cpu time    0.02: real time    0.02
    LRDIAG:  cpu time    0.01: real time    0.01
    MIXING:  cpu time    0.00: real time    0.00
    --------------------------------------------
      LOOP:  cpu time    0.16: real time    0.17

 Broyden mixing:
  rms(total) = 0.12284E-04    rms(broyden)= 0.12272E-04
  rms(prec ) = 0.21349E-04
  weight for this iteration     100.00

 eigenvalues of (default mixing * dielectric matrix)
  average eigenvalue GAMMA=   1.8436
  3.1964  2.7715  2.4492  1.6702  1.4905  0.9690  1.1277  1.0746

 Free energy of the ion-electron system (eV)
  ---------------------------------------------------
  -1/2 Hartree   DENC   =        -4.62626218
  -V(xc)+E(xc)   XCENC  =         0.95765649
  PAW double counting   =         3.07047377       -3.11939874
  entropy T*S    EENTRO =         0.00000000
  eigenvalues    EBANDS =       -24.55748933
  ---------------------------------------------------
  free energy    TOTEN  =       -28.27501998 eV

  energy without entropy =      -28.27501998


----------------------------------------- Iteration    3(  11)  ---------------------------------------


   POT+DIJ:  cpu time    0.08: real time    0.08
    HAMIL1:  cpu time    0.01: real time    0.01
    LRDIAG:  cpu time    0.01: real time    0.01
    LRDIIS:  cpu time    0.02: real time    0.02
    LRDIAG:  cpu time    0.01: real time    0.01
    MIXING:  cpu time    0.00: real time    0.00
    --------------------------------------------
      LOOP:  cpu time    0.16: real time    0.16

 Broyden mixing:
  rms(total) = 0.36777E-05    rms(broyden)= 0.36757E-05
  rms(prec ) = 0.51781E-05
  weight for this iteration     100.00

 eigenvalues of (default mixing * dielectric matrix)
  average eigenvalue GAMMA=   1.8779
  3.2009  2.7853  2.4404  2.2740  1.6715  1.4086  1.1078  0.9953  1.0175

 Free energy of the ion-electron system (eV)
  ---------------------------------------------------
  -1/2 Hartree   DENC   =        -4.62627045
  -V(xc)+E(xc)   XCENC  =         0.95765461
  PAW double counting   =         3.07049896       -3.11942430
  entropy T*S    EENTRO =         0.00000000
  eigenvalues    EBANDS =       -24.55747488
  ---------------------------------------------------
  free energy    TOTEN  =       -28.27501606 eV

  energy without entropy =      -28.27501606


----------------------------------------- Iteration    3(  12)  ---------------------------------------


   POT+DIJ:  cpu time    0.08: real time    0.08
    HAMIL1:  cpu time    0.00: real time    0.00
    LRDIAG:  cpu time    0.01: real time    0.01
    LRDIIS:  cpu time    0.02: real time    0.02
    LRDIAG:  cpu time    0.01: real time    0.01
    MIXING:  cpu time    0.00: real time    0.00
    --------------------------------------------
      LOOP:  cpu time    0.16: real time    0.16

 Broyden mixing:
  rms(total) = 0.10847E-05    rms(broyden)= 0.10843E-05
  rms(prec ) = 0.15653E-05
  weight for this iteration     100.00

 eigenvalues of (default mixing * dielectric matrix)
  average eigenvalue GAMMA=   1.8461
  3.2053  2.8160  2.4615  2.4615  1.6692  1.3638  1.3638  1.0066  1.0066  1.1067

 Free energy of the ion-electron system (eV)
  ---------------------------------------------------
  -1/2 Hartree   DENC   =        -4.62627142
  -V(xc)+E(xc)   XCENC  =         0.95765453
  PAW double counting   =         3.07042135       -3.11934539
  entropy T*S    EENTRO =         0.00000000
  eigenvalues    EBANDS =       -24.55747578
  ---------------------------------------------------
  free energy    TOTEN  =       -28.27501672 eV

  energy without entropy =      -28.27501672


----------------------------------------- Iteration    3(  13)  ---------------------------------------


   POT+DIJ:  cpu time    0.08: real time    0.08
    HAMIL1:  cpu time    0.01: real time    0.01
    LRDIAG:  cpu time    0.01: real time    0.01
    LRDIIS:  cpu time    0.02: real time    0.02
    LRDIAG:  cpu time    0.01: real time    0.01
    MIXING:  cpu time    0.00: real time    0.00
    --------------------------------------------
      LOOP:  cpu time    0.16: real time    0.16

 Broyden mixing:
  rms(total) = 0.30076E-06    rms(broyden)= 0.30069E-06
  rms(prec ) = 0.52804E-06
  weight for this iteration     100.00

 eigenvalues of (default mixing * dielectric matrix)
  average eigenvalue GAMMA=   1.8125
  3.2069  2.8258  2.4419  2.6008  1.6662  1.7019  1.3516  1.1158  0.9889  0.9889
  1.0493

 Free energy of the ion-electron system (eV)
  ---------------------------------------------------
  -1/2 Hartree   DENC   =        -4.62627207
  -V(xc)+E(xc)   XCENC  =         0.95765459
  PAW double counting   =         3.07039975       -3.11932341
  entropy T*S    EENTRO =         0.00000000
  eigenvalues    EBANDS =       -24.55747596
  ---------------------------------------------------
  free energy    TOTEN  =       -28.27501710 eV

  energy without entropy =      -28.27501710


------------------------ aborting loop because EDIFF is reached ----------------------------------------


 change of polarisation eV/A/(eV/A) component  3 :     0.046    -0.226    50.514
 dielectric tensor                  component  3 :     0.051    -0.250    56.849


--------------------------------------------------------------------------------------------------------


    FORLOC:  cpu time    0.00: real time    0.00
    FORNL :  cpu time    0.09: real time    0.09
    STRESS:  cpu time    0.30: real time    0.30
    FORCOR:  cpu time    0.02: real time    0.02
    FORLOC:  cpu time    0.00: real time    0.00
    FORNL :  cpu time    0.09: real time    0.09
    STRESS:  cpu time    0.30: real time    0.30
    FORCOR:  cpu time    0.02: real time    0.02
    FORNLD:  cpu time    0.01: real time    0.01

 PIEZOELECTRIC TENSOR FIELD DIRECTION 3  (e Angst)
 -----------------------------------------------------------------------------
     0.00319 -0.00096 -0.00231           (  0.00006 -0.00007 -0.00011)
    -0.00096 -0.00023  0.00011           ( -0.00007  0.00003  0.00001)
    -0.00231  0.00011 -0.00461           ( -0.00011  0.00001 -0.00009)

 PIEZOELECTRIC TENSOR FIELD DIRECTION 3  (C/m^2)
 -----------------------------------------------------------------------------
     0.00031 -0.00009 -0.00023
    -0.00009 -0.00002  0.00001
    -0.00023  0.00001 -0.00045


      POSITION         DIRECTION 3           BORN EFFECTIVE CHARGE    (rigid.aug.   ionic)
 -----------------------------------------------------------------------------------------
      0.00236      5.46637      5.46844    -0.09467 -0.04410 -5.79002 (  0.21593  4.00000)
      1.36387      1.36594      1.36559    -0.03180 -0.01047 -5.75237 (  0.21593  4.00000)
      2.73344      2.73309      0.00092     0.05494  0.00851 -5.78860 (  0.21592  4.00000)
      4.10059      4.10342      1.36668    -0.05508  0.06380 -5.74640 (  0.21594  4.00000)
      2.73592      5.46918      2.73422     0.08800  0.00578 -5.76766 (  0.21593  4.00000)
      4.10168      1.36672      4.10242     0.02955 -0.05357 -5.82033 (  0.21591  4.00000)
      5.46922      2.73492      2.73146    -0.05553  0.06082 -5.75649 (  0.21593  4.00000)
      1.36742      4.09896      4.09821     0.05425  0.02563 -5.78316 (  0.21593  4.00000)
 -----------------------------------------------------------------------------------------
    total drift (improves with k-points):  -0.01034  0.05639-46.20503




--------------------------------------------------------------------------------------------------------


  LATTYP: Found a simple cubic cell.
 ALAT       =     5.4700000000
  
  Lattice vectors:
  
 A1 = (   5.4700000000,   0.0000000000,   0.0000000000)
 A2 = (   0.0000000000,   5.4700000000,   0.0000000000)
 A3 = (   0.0000000000,   0.0000000000,   5.4700000000)


Analysis of symmetry for initial positions (statically):
=====================================================================
 Subroutine PRICEL returns:
 Original cell was already a primitive cell.
 

 Routine SETGRP: Setting up the symmetry group for a 
 simple cubic supercell.


 Subroutine GETGRP returns: Found  1 space group operations
 (whereof  1 operations were pure point group operations)
 out of a pool of 48 trial point group operations.


The static configuration has the point symmetry C_1 .


Analysis of symmetry for dynamics (positions and initial velocities):
=====================================================================
 Subroutine PRICEL returns:
 Original cell was already a primitive cell.
 

 Routine SETGRP: Setting up the symmetry group for a 
 simple cubic supercell.


 Subroutine GETGRP returns: Found  1 space group operations
 (whereof  1 operations were pure point group operations)
 out of a pool of 48 trial point group operations.


The dynamic configuration has the point symmetry C_1 .


 MACROSCOPIC STATIC DIELECTRIC TENSOR (including local field effects in DFT)
 ------------------------------------------------------
          56.853907    -0.069503     0.051015
          -0.069503    56.849516    -0.250060
           0.051018    -0.250060    56.848726
 ------------------------------------------------------



--------------------------------------------------------------------------------------------------------


  LATTYP: Found a simple cubic cell.
 ALAT       =     5.4700000000
  
  Lattice vectors:
  
 A1 = (   5.4700000000,   0.0000000000,   0.0000000000)
 A2 = (   0.0000000000,   5.4700000000,   0.0000000000)
 A3 = (   0.0000000000,   0.0000000000,   5.4700000000)


Analysis of symmetry for initial positions (statically):
=====================================================================
 Subroutine PRICEL returns:
 Original cell was already a primitive cell.
 

 Routine SETGRP: Setting up the symmetry group for a 
 simple cubic supercell.


 Subroutine GETGRP returns: Found  1 space group operations
 (whereof  1 operations were pure point group operations)
 out of a pool of 48 trial point group operations.


The static configuration has the point symmetry C_1 .


Analysis of symmetry for dynamics (positions and initial velocities):
=====================================================================
 Subroutine PRICEL returns:
 Original cell was already a primitive cell.
 

 Routine SETGRP: Setting up the symmetry group for a 
 simple cubic supercell.


 Subroutine GETGRP returns: Found  1 space group operations
 (whereof  1 operations were pure point group operations)
 out of a pool of 48 trial point group operations.


The dynamic configuration has the point symmetry C_1 .
 
 KPOINTS: Automatic mesh                          

Automatic generation of k-mesh.
Space group operators:
 irot       det(A)        alpha          n_x          n_y          n_z        tau_x        tau_y        tau_z
    1     1.000000     0.000001     1.000000     0.000000     0.000000     0.000000     0.000000     0.000000
 
 Subroutine IBZKPT returns following result:
 ===========================================
 
 Found      1 irreducible k-points:
 
 Following reciprocal coordinates:
            Coordinates               Weight
  0.000000  0.000000  0.000000      1.000000
 
 Following cartesian coordinates:
            Coordinates               Weight
  0.000000  0.000000  0.000000      1.000000
 


--------------------------------------------------------------------------------------------------------




 MACROSCOPIC STATIC DIELECTRIC TENSOR (including local field effects in DFT)
 ------------------------------------------------------
          56.853907    -0.069503     0.051015
          -0.069503    56.849516    -0.250060
           0.051018    -0.250060    56.848726
 ------------------------------------------------------


 PIEZOELECTRIC TENSOR  for field in x, y, z        (e  Angst)
          XX          YY          ZZ          XY          YZ          ZX
  --------------------------------------------------------------------------------
  x     0.00589    -0.00001     0.00175     0.00120    -0.00322     0.00089
  y     0.00229    -0.00191    -0.00446     0.00511    -0.00099    -0.00201
  z     0.00319    -0.00023    -0.00461    -0.00096     0.00011    -0.00231

 PIEZOELECTRIC TENSOR  for field in x, y, z        (C/m^2)
          XX          YY          ZZ          XY          YZ          ZX
  --------------------------------------------------------------------------------
  x     0.00058     0.00000     0.00017     0.00012    -0.00032     0.00009
  y     0.00022    -0.00019    -0.00044     0.00050    -0.00010    -0.00020
  z     0.00031    -0.00002    -0.00045    -0.00009     0.00001    -0.00023
 
 BORN EFFECTIVE CHARGES (in e, cummulative output)
 -------------------------------------------------
 ion    1
    1    -5.77939    -0.06565     0.01989
    2     0.01307    -5.78043     0.10465
    3    -0.09467    -0.04410    -5.79002
 ion    2
    1    -5.75894     0.01332     0.05830
    2    -0.04537    -5.77060     0.05471
    3    -0.03180    -0.01047    -5.75237
 ion    3
    1    -5.78617     0.06749    -0.04546
    2    -0.01056    -5.78218     0.01259
    3     0.05494     0.00851    -5.78860
 ion    4
    1    -5.76645    -0.00903     0.01907
    2     0.04978    -5.75237    -0.01643
    3    -0.05508     0.06380    -5.74640
 ion    5
    1    -5.77945    -0.01898    -0.02589
    2     0.03931    -5.77501     0.00143
    3     0.08800     0.00578    -5.76766
 ion    6
    1    -5.81725    -0.10836    -0.06263
    2     0.06737    -5.81571     0.02836
    3     0.02955    -0.05357    -5.82033
 ion    7
    1    -5.75911     0.02322     0.04584
    2    -0.03697    -5.76495    -0.08682
    3    -0.05553     0.06082    -5.75649
 ion    8
    1    -5.76300     0.11078    -0.01943
    2    -0.06355    -5.76601    -0.03984
    3     0.05425     0.02563    -5.78316


--------------------------------------------------------------------------------------------------------


     LOOP+:  cpu time   20.46: real time   20.84
    4ORBIT:  cpu time    0.00: real time    0.00

 total amount of memory used by VASP on root node    32224. kBytes
========================================================================

   base      :      30000. kBytes
   nonl-proj :        202. kBytes
   fftplans  :        782. kBytes
   grid      :       1198. kBytes
   one-center:         24. kBytes
   wavefun   :         18. kBytes
 
  
  
 General timing and accounting informations for this job:
 ========================================================
  
                  Total CPU time used (sec):       21.223
                            User time (sec):       16.810
                          System time (sec):        4.412
                         Elapsed time (sec):       22.982
  
                   Maximum memory used (kb):       80036.
                   Average memory used (kb):           0.
  
                          Minor page faults:       209222
                          Major page faults:            0
                 Voluntary context switches:         1429
