 vasp.5.3.3 18Dez12 (build Jan  9 2014 12:00:49) complex                        
  
 executed on             LinuxIFC date 2014.01.29  10:04:07
 running on   48 total cores
 distrk:  each k-point on   48 cores,    1 groups
 distr:  one band on NCORES_PER_BAND=   1 cores,   48 groups


--------------------------------------------------------------------------------------------------------


 INCAR:
 POTCAR:    PAW Si                                

 ----------------------------------------------------------------------------- 
|                                                                             |
|           W    W    AA    RRRRR   N    N  II  N    N   GGGG   !!!           |
|           W    W   A  A   R    R  NN   N  II  NN   N  G    G  !!!           |
|           W    W  A    A  R    R  N N  N  II  N N  N  G       !!!           |
|           W WW W  AAAAAA  RRRRR   N  N N  II  N  N N  G  GGG   !            |
|           WW  WW  A    A  R   R   N   NN  II  N   NN  G    G                |
|           W    W  A    A  R    R  N    N  II  N    N   GGGG   !!!           |
|                                                                             |
|      For optimal performance we recommend that you set                      |
|        NPAR = 4 - approx SQRT( number of cores)                             |
|      (number of cores/NPAR must be integer)                                 |
|      This setting will greatly improve the performance of VASP for DFT.     |
|      The default NPAR=number of cores might be grossly inefficient          |
|      on modern multi-core architectures or massively parallel machines.     |
|      Do your own testing.                                                   |
|      Unfortunately you need to use the default for hybrid, GW and RPA       |
|      calculations.                                                          |
|                                                                             |
 ----------------------------------------------------------------------------- 

 POTCAR:    PAW Si                                
   VRHFIN =Si: s2p2                                                             
   LEXCH  = 91                                                                  
   EATOM  =   103.3076 eV,    7.5929 Ry                                         
                                                                                
   TITEL  = PAW Si                                                              
   LULTRA =        F    use ultrasoft PP ?                                      
   IUNSCR =        1    unscreen: 0-lin 1-nonlin 2-no                           
   RPACOR =    1.500    partial core radius                                     
   POMASS =   28.085; ZVAL   =    4.000    mass and valenz                      
   RCORE  =    1.900    outmost cutoff radius                                   
   RWIGS  =    2.480; RWIGS  =    1.312    wigner-seitz radius (au A)           
   ENMAX  =  245.435; ENMIN  =  184.076 eV                                      
   ICORE  =        2    local potential                                         
   LCOR   =        T    correct aug charges                                     
   LPAW   =        T    paw PP                                                  
   EAUG   =  322.069                                                            
   DEXC   =    -.001                                                            
   RMAX   =    2.943    core radius for proj-oper                               
   RAUG   =    1.300    factor for augmentation sphere                          
   RDEP   =    1.993    core radius for depl-charge                             
   QCUT   =   -4.247; QGAM   =    8.494    optimization parameters              
                                                                                
   Description                                                                  
     l     E      TYP  RCUT    TYP  RCUT                                        
     0   .000     23  1.900                                                     
     0   .000     23  1.900                                                     
     1   .000     23  1.900                                                     
     1   .000     23  1.900                                                     
     2   .000      7  1.900                                                     
  local pseudopotential read in
  partial core-charges read in
  atomic valenz-charges read in
  non local Contribution for L=           0  read in
    real space projection operators read in
  non local Contribution for L=           0  read in
    real space projection operators read in
  non local Contribution for L=           1  read in
    real space projection operators read in
  non local Contribution for L=           1  read in
    real space projection operators read in
    PAW grid and wavefunctions read in
 
   number of l-projection  operators is LMAX  =           4
   number of lm-projection operators is LMMAX =           8
 
  PAW Si                                :
 energy of atom  1       EATOM= -103.3076
 kinetic energy error for atom=    0.0109 (will be added to EATOM!!)
 
 
 POSCAR: OUTCAR.0012.+1.out 1.0e-02              
  positions in cartesian coordinates
  No initial velocities read in
 exchange correlation table for  LEXCH =        7
   RHO(1)=    0.500       N(1)  =     2000
   RHO(2)=  100.500       N(2)  =     4000

 VTST: version 3.0c, (01/09/14)

 CHAIN: initializing optimizer
 
 OPT: Using VASP Dynamics algorithm
 CHAIN: Read ICHAIN            0
 
 POSCAR: OUTCAR.0012.+1.out 1.0e-02              
  positions in cartesian coordinates
  No initial velocities read in
 


--------------------------------------------------------------------------------------------------------


 ion  position               nearest neighbor table
   1  0.000  0.000  0.000-   4 2.36   2 2.37   6 2.37   8 2.37
   2  0.250  0.250  0.250-   7 2.37   1 2.37   3 2.37   5 2.37
   3  0.500  0.500  0.000-   4 2.37   6 2.37   8 2.37   2 2.37
   4  0.750  0.750  0.249-   1 2.36   3 2.37   7 2.37   5 2.37
   5  0.500  0.999  0.500-   8 2.37   4 2.37   6 2.37   2 2.37
   6  0.749  0.250  0.751-   3 2.37   5 2.37   1 2.37   7 2.37
   7  0.000  0.501  0.500-   8 2.37   2 2.37   4 2.37   6 2.37
   8  0.251  0.750  0.750-   5 2.37   7 2.37   3 2.37   1 2.37
 
  LATTYP: Found a simple cubic cell.
 ALAT       =     5.4700000000
  
  Lattice vectors:
  
 A1 = (   5.4700000000,   0.0000000000,   0.0000000000)
 A2 = (   0.0000000000,   5.4700000000,   0.0000000000)
 A3 = (   0.0000000000,   0.0000000000,   5.4700000000)


Analysis of symmetry for initial positions (statically):
=====================================================================
 Subroutine PRICEL returns:
 Original cell was already a primitive cell.
 

 Routine SETGRP: Setting up the symmetry group for a 
 simple cubic supercell.


 Subroutine GETGRP returns: Found  1 space group operations
 (whereof  1 operations were pure point group operations)
 out of a pool of 48 trial point group operations.


The static configuration has the point symmetry C_1 .


Analysis of symmetry for dynamics (positions and initial velocities):
=====================================================================
 Subroutine PRICEL returns:
 Original cell was already a primitive cell.
 

 Routine SETGRP: Setting up the symmetry group for a 
 simple cubic supercell.


 Subroutine GETGRP returns: Found  1 space group operations
 (whereof  1 operations were pure point group operations)
 out of a pool of 48 trial point group operations.


The dynamic configuration has the point symmetry C_1 .


 irot  :   1
 --------------------------------------------------------------------
 isymop:   1   0   0
           0   1   0
           0   0   1

 gtrans:     0.0000000     0.0000000     0.0000000

 ptrans:     0.0000000     0.0000000     0.0000000
 rotmap:
 (   1->   1)  (   2->   2)  (   3->   3)  (   4->   4)  (   5->   5) 
 (   6->   6)  (   7->   7)  (   8->   8) 
 
 
 KPOINTS: Automatic mesh                          

Automatic generation of k-mesh.
Space group operators:
 irot       det(A)        alpha          n_x          n_y          n_z        tau_x        tau_y        tau_z
    1     1.000000     0.000001     1.000000     0.000000     0.000000     0.000000     0.000000     0.000000
 
 Subroutine IBZKPT returns following result:
 ===========================================
 
 Found      1 irreducible k-points:
 
 Following reciprocal coordinates:
            Coordinates               Weight
  0.000000  0.000000  0.000000      1.000000
 
 Following cartesian coordinates:
            Coordinates               Weight
  0.000000  0.000000  0.000000      1.000000
 
 
 Subroutine IBZKPT_HF returns following result:
 ==============================================
 
 Found      1 k-points in 1st BZ
 the following      1 k-points will be used (e.g. in the exchange kernel)
 Following reciprocal coordinates:   # in IRBZ
  0.000000  0.000000  0.000000       1 t-inv F


--------------------------------------------------------------------------------------------------------




 Dimension of arrays:
   k-points           NKPTS =      1   k-points in BZ     NKDIM =      1   number of bands    NBANDS=     48
   number of dos      NEDOS =    301   number of ions     NIONS =      8
   non local maximal  LDIM  =      4   non local SUM 2l+1 LMDIM =      8
   total plane-waves  NPLWV =  21952
   max r-space proj   IRMAX =      1   max aug-charges    IRDMAX=  36071
   dimension x,y,z NGX =    28 NGY =   28 NGZ =   28
   dimension x,y,z NGXF=    56 NGYF=   56 NGZF=   56
   support grid    NGXF=   112 NGYF=  112 NGZF=  112
   ions per type =               8
 NGX,Y,Z   is equivalent  to a cutoff of   8.51,  8.51,  8.51 a.u.
 NGXF,Y,Z  is equivalent  to a cutoff of  17.02, 17.02, 17.02 a.u.


 I would recommend the setting:
   dimension x,y,z NGX =    19 NGY =   19 NGZ =   19
 SYSTEM =  NAPTHA04                                
 POSCAR =  OUTCAR.0012.+1.out 1.0e-02              

 Startparameter for this run:
   NWRITE =      3    write-flag & timer
   PREC   = normal    normal or accurate (medium, high low for compatibility)
   ISTART =      0    job   : 0-new  1-cont  2-samecut
   ICHARG =      2    charge: 1-file 2-atom 10-const
   ISPIN  =      1    spin polarized calculation?
   LNONCOLLINEAR =      F non collinear calculations
   LSORBIT =      F    spin-orbit coupling
   INIWAV =      1    electr: 0-lowe 1-rand  2-diag
   LASPH  =      F    aspherical Exc in radial PAW
   METAGGA=      F    non-selfconsistent MetaGGA calc.

 Electronic Relaxation 1
   ENCUT  =  200.0 eV  14.70 Ry    3.83 a.u.   6.31  6.31  6.31*2*pi/ulx,y,z
   ENINI  =  200.0     initial cutoff
   ENAUG  =  322.1 eV  augmentation charge cutoff
   NELM   =     60;   NELMIN=  2; NELMDL= -5     # of ELM steps 
   EDIFF  = 0.1E-07   stopping-criterion for ELM
   LREAL  =      F    real-space projection
   NLSPLINE    = F    spline interpolate recip. space projectors
   LCOMPAT=      F    compatible to vasp.4.4
   GGA_COMPAT  = T    GGA compatible to vasp.4.4-vasp.4.6
   LMAXPAW     = -100 max onsite density
   LMAXMIX     =    2 max onsite mixed and CHGCAR
   VOSKOWN=      0    Vosko Wilk Nusair interpolation
   ROPT   =    0.00000
 Ionic relaxation
   EDIFFG = 0.1E-06   stopping-criterion for IOM
   NSW    =      0    number of steps for IOM
   NBLOCK =      1;   KBLOCK =      1    inner block; outer block 
   IBRION =     -1    ionic relax: 0-MD 1-quasi-New 2-CG
   NFREE  =      0    steps in history (QN), initial steepest desc. (CG)
   ISIF   =      2    stress and relaxation
   IWAVPR =     10    prediction:  0-non 1-charg 2-wave 3-comb
   ISYM   =      2    0-nonsym 1-usesym 2-fastsym
   LCORR  =      T    Harris-Foulkes like correction to forces

   POTIM  = 0.5000    time-step for ionic-motion
   TEIN   =    0.0    initial temperature
   TEBEG  =    0.0;   TEEND  =   0.0 temperature during run
   SMASS  =  -3.00    Nose mass-parameter (am)
   estimated Nose-frequenzy (Omega)   =  0.10E-29 period in steps =****** mass=  -0.684E-27a.u.
   SCALEE = 1.0000    scale energy and forces
   NPACO  =    256;   APACO  = 16.0  distance and # of slots for P.C.
   PSTRESS=    0.0 pullay stress

  Mass of Ions in am
   POMASS =  28.09
  Ionic Valenz
   ZVAL   =   4.00
  Atomic Wigner-Seitz radii
   RWIGS  =  -1.00
  virtual crystal weights 
   VCA    =   1.00
   NELECT =      32.0000    total number of electrons
   NUPDOWN=      -1.0000    fix difference up-down

 DOS related values:
   EMIN   =  10.00;   EMAX   =-10.00  energy-range for DOS
   EFERMI =   0.00
   ISMEAR =     0;   SIGMA  =   0.02  broadening in eV -4-tet -1-fermi 0-gaus

 Electronic relaxation 2 (details)
   IALGO  =     68    algorithm
   LDIAG  =      T    sub-space diagonalisation (order eigenvalues)
   LSUBROT=      T    optimize rotation matrix (better conditioning)
   TURBO    =      0    0=normal 1=particle mesh
   IRESTART =      0    0=no restart 2=restart with 2 vectors
   NREBOOT  =      0    no. of reboots
   NMIN     =      0    reboot dimension
   EREF     =   0.00    reference energy to select bands
   IMIX   =      4    mixing-type and parameters
     AMIX     =   0.40;   BMIX     =  1.00
     AMIX_MAG =   1.60;   BMIX_MAG =  1.00
     AMIN     =   0.10
     WC   =   100.;   INIMIX=   1;  MIXPRE=   1;  MAXMIX= -45

 Intra band minimization:
   WEIMIN = 0.0000     energy-eigenvalue tresh-hold
   EBREAK =  0.52E-10  absolut break condition
   DEPER  =   0.30     relativ break condition  

   TIME   =   0.40     timestep for ELM

  volume/ion in A,a.u.               =      20.46       138.06
  Fermi-wavevector in a.u.,A,eV,Ry     =   0.950176  1.795573 12.283814  0.902835
  Thomas-Fermi vector in A             =   2.078528
 
 Write flags
   LWAVE  =      F    write WAVECAR
   LCHARG =      F    write CHGCAR
   LVTOT  =      F    write LOCPOT, total local potential
   LVHAR  =      F    write LOCPOT, Hartree potential only
   LELF   =      F    write electronic localiz. function (ELF)
   LORBIT =      0    0 simple, 1 ext, 2 COOP (PROOUT)


 Dipole corrections
   LMONO  =      F    monopole corrections only (constant potential shift)
   LDIPOL =      F    correct potential (dipole corrections)
   IDIPOL =      0    1-x, 2-y, 3-z, 4-all directions 
   EPSILON=  1.0000000 bulk dielectric constant

 Exchange correlation treatment:
   GGA     =    --    GGA type
   LEXCH   =     7    internal setting for exchange type
   VOSKOWN=      0    Vosko Wilk Nusair interpolation
   LHFCALC =     F    Hartree Fock is set to
   LHFONE  =     F    Hartree Fock one center treatment
   AEXX    =    0.0000 exact exchange contribution

 Linear response parameters
   LEPSILON=     T    determine dielectric tensor
   LRPA    =     F    only Hartree local field effects (RPA)
   LNABLA  =     F    use nabla operator in PAW spheres
   LVEL    =     F    velocity operator in full k-point grid
   LINTERFAST=   F  fast interpolation
   KINTER  =     0    interpolate to denser k-point grid
   CSHIFT  =0.1000    complex shift for real part using Kramers Kronig
   OMEGAMAX=  -1.0    maximum frequency
   DEG_THRESHOLD= 0.2000000E-02 threshold for treating states as degnerate
   RTIME   =    0.100 relaxation time in fs

 Orbital magnetization related:
   ORBITALMAG=     F  switch on orbital magnetization
   LCHIMAG   =     F  perturbation theory with respect to B field
   DQ        =  0.001000  dq finite difference perturbation B field



--------------------------------------------------------------------------------------------------------


 Static calculation
 charge density and potential will be updated during run
 non-spin polarized calculation
 RMM-DIIS sequential band-by-band and
  variant of blocked Davidson during initial phase
 perform sub-space diagonalisation
    before iterative eigenvector-optimisation
 modified Broyden-mixing scheme, WC =      100.0
 initial mixing is a Kerker type mixing with AMIX =  0.4000 and BMIX =      1.0000
 Hartree-type preconditioning will be used
 using additional bands           32
 reciprocal scheme for non local part
 use partial core corrections
 calculate Harris-corrections to forces 
   (improved forces if not selfconsistent)
 use gradient corrections 
 use of overlap-Matrix (Vanderbilt PP)
 Gauss-broadening in eV      SIGMA  =   0.02


--------------------------------------------------------------------------------------------------------


  energy-cutoff  :      200.00
  volume of cell :      163.67
      direct lattice vectors                 reciprocal lattice vectors
     5.470000000  0.000000000  0.000000000     0.182815356  0.000000000  0.000000000
     0.000000000  5.470000000  0.000000000     0.000000000  0.182815356  0.000000000
     0.000000000  0.000000000  5.470000000     0.000000000  0.000000000  0.182815356

  length of vectors
     5.470000000  5.470000000  5.470000000     0.182815356  0.182815356  0.182815356


 
 k-points in units of 2pi/SCALE and weight: Automatic mesh                          
   0.00000000  0.00000000  0.00000000       1.000
 
 k-points in reciprocal lattice and weights: Automatic mesh                          
   0.00000000  0.00000000  0.00000000       1.000
 
 position of ions in fractional coordinates (direct lattice) 
   0.00024557  0.00000583  0.00031852
   0.25000583  0.25031852  0.25042227
   0.50031852  0.50042227  0.00029252
   0.75042227  0.75029252  0.24942291
   0.50029252  0.99942291  0.50002642
   0.74942291  0.25002642  0.75061517
   0.00002642  0.50061517  0.49998077
   0.25061517  0.74998077  0.74977966
 
 position of ions in cartesian coordinates  (Angst):
   0.00134328  0.00003187  0.00174232
   1.36753187  1.36924232  1.36980981
   2.73674232  2.73730981  0.00160008
   4.10480981  4.10410008  1.36434333
   2.73660008  5.46684333  2.73514451
   4.09934333  1.36764451  4.10586497
   0.00014451  2.73836497  2.73489484
   1.37086497  4.10239484  4.10129476
 


--------------------------------------------------------------------------------------------------------


 k-point  1 :   0.0000 0.0000 0.0000  plane waves:    1021

 maximum and minimum number of plane-waves per node :      1021     1021

 maximum number of plane-waves:      1021
 maximum index in each direction: 
   IXMAX=    6   IYMAX=    6   IZMAX=    6
   IXMIN=   -6   IYMIN=   -6   IZMIN=   -6

 NGX is ok and might be reduce to  26
 NGY is ok and might be reduce to  26
 NGZ is ok and might be reduce to  26

 serial   3D FFT for wavefunctions
 parallel 3D FFT for charge:
    minimum data exchange during FFTs selected (reduces bandwidth)


 total amount of memory used by VASP on root node    32224. kBytes
========================================================================

   base      :      30000. kBytes
   nonl-proj :        202. kBytes
   fftplans  :        782. kBytes
   grid      :       1198. kBytes
   one-center:         24. kBytes
   wavefun   :         18. kBytes
 
 Broyden mixing: mesh for mixing (old mesh)
   NGX = 13   NGY = 13   NGZ = 13
  (NGX  = 56   NGY  = 56   NGZ  = 56)
  gives a total of   2197 points

 initial charge density was supplied:
 charge density of overlapping atoms calculated
 number of electron      32.0000000 magnetization 
 keeping initial charge density in first step


--------------------------------------------------------------------------------------------------------


 Maximum index for augmentation-charges         1782 (set IRDMAX)


--------------------------------------------------------------------------------------------------------


 First call to EWALD:  gamma=   0.324
 Maximum number of real-space cells 3x 3x 3
 Maximum number of reciprocal cells 3x 3x 3

 FEWALD executed in parallel
    FEWALD:  cpu time    0.00: real time    0.00


----------------------------------------- Iteration    1(   1)  ---------------------------------------


    POTLOK:  cpu time    0.03: real time    0.04
    SETDIJ:  cpu time    0.02: real time    0.02
     EDDAV:  cpu time    0.40: real time    0.41
       DOS:  cpu time    0.00: real time    0.00
    --------------------------------------------
      LOOP:  cpu time    0.46: real time    0.48

 eigenvalue-minimisations  :    96
 total energy-change (2. order) :-0.1012953E+02  (-0.7956149E+03)
 number of electron      32.0000000 magnetization 
 augmentation part       32.0000000 magnetization 

 Free energy of the ion-electron system (eV)
  ---------------------------------------------------
  alpha Z        PSCENC =        12.68944982
  Ewald energy   TEWEN  =      -907.56678780
  -1/2 Hartree   DENC   =       -45.63644495
  -exchange  EXHF       =         0.00000000
  -V(xc)+E(xc)   XCENC  =       -76.79671622
  PAW double counting   =       265.93453375     -123.69690146
  entropy T*S    EENTRO =        -0.00025263
  eigenvalues    EBANDS =        38.56960930
  atomic energy  EATOM  =       826.37398168
  ---------------------------------------------------
  free energy    TOTEN  =       -10.12952852 eV

  energy without entropy =      -10.12927589  energy(sigma->0) =      -10.12940221


--------------------------------------------------------------------------------------------------------




 average (electrostatic) potential at core
  the test charge radii are     0.9892
  (the norm of the test charge is              1.0000)
       1 -84.3499       2 -84.3472       3 -84.3542       4 -84.3571       5 -84.3510
       6 -84.3459       7 -84.3475       8 -84.3523
 
 
 
 E-fermi :   6.6084     XC(G=0):  -9.5533     alpha+bet :-11.7379


 k-point   1 :       0.0000    0.0000    0.0000
  band No.  band energies     occupation 
      1      -6.5897      2.00000
      2      -2.4125      2.00000
      3      -2.2470      2.00000
      4      -2.1216      2.00000
      5      -2.0330      2.00000
      6      -1.8790      2.00000
      7      -1.6726      2.00000
      8       2.7432      2.00000
      9       2.8503      2.00000
     10       2.9930      2.00000
     11       3.1597      2.00000
     12       3.3473      2.00000
     13       4.0792      2.00000
     14       6.1382      2.00000
     15       6.3631      2.00000
     16       6.5660      1.99728
     17       6.6508      0.00272
     18       6.8100      0.00000
     19       6.9092      0.00000
     20       7.1718      0.00000
     21       7.3751      0.00000
     22       8.0474      0.00000
     23       8.9815      0.00000
     24       9.3742      0.00000
     25      10.4525      0.00000
     26      11.4514      0.00000
     27      13.5067      0.00000
     28      14.7746      0.00000
     29      16.5519      0.00000
     30      16.8961      0.00000
     31      17.3674      0.00000
     32      17.5820      0.00000
     33      17.9214      0.00000
     34      18.1253      0.00000
     35      18.4978      0.00000
     36      18.8829      0.00000
     37      19.3799      0.00000
     38      19.5157      0.00000
     39      19.8553      0.00000
     40      20.2534      0.00000
     41      21.0959      0.00000
     42      21.6804      0.00000
     43      22.1887      0.00000
     44      22.7655      0.00000
     45      23.8992      0.00000
     46      24.4015      0.00000
     47      24.8185      0.00000
     48      25.8385      0.00000


--------------------------------------------------------------------------------------------------------


 soft charge-density along one line, spin component           1
         0         1         2         3         4         5         6         7         8         9
 total charge-density along one line
 
 pseudopotential strength for first ion, spin component:           1
 18.662   0.000   0.000   0.000   0.000   0.000   0.000   0.000
  0.000   0.006   0.000   0.000   0.000   0.000   0.000   0.000
  0.000   0.000   4.216   0.000   0.000  -0.004   0.000   0.000
  0.000   0.000   0.000   4.216   0.000   0.000  -0.004   0.000
  0.000   0.000   0.000   0.000   4.216   0.000   0.000  -0.004
  0.000   0.000  -0.004   0.000   0.000   0.005   0.000   0.000
  0.000   0.000   0.000  -0.004   0.000   0.000   0.005   0.000
  0.000   0.000   0.000   0.000  -0.004   0.000   0.000   0.005
 total augmentation occupancy for first ion, spin component:           1
  2.000   0.000   0.000   0.000   0.000   0.000   0.000   0.000
  0.000   0.000   0.000   0.000   0.000   0.000   0.000   0.000
  0.000   0.000   0.667   0.000   0.000   0.000   0.000   0.000
  0.000   0.000   0.000   0.667   0.000   0.000   0.000   0.000
  0.000   0.000   0.000   0.000   0.667   0.000   0.000   0.000
  0.000   0.000   0.000   0.000   0.000   0.000   0.000   0.000
  0.000   0.000   0.000   0.000   0.000   0.000   0.000   0.000
  0.000   0.000   0.000   0.000   0.000   0.000   0.000   0.000


----------------------------------------- Iteration    1(   2)  ---------------------------------------


     EDDAV:  cpu time    0.97: real time    0.97
       DOS:  cpu time    0.00: real time    0.00
    --------------------------------------------
      LOOP:  cpu time    0.98: real time    0.98

 eigenvalue-minimisations  :   144
 total energy-change (2. order) :-0.2432079E+02  (-0.2431816E+02)
 number of electron      32.0000000 magnetization 
 augmentation part       32.0000000 magnetization 

 Free energy of the ion-electron system (eV)
  ---------------------------------------------------
  alpha Z        PSCENC =        12.68944982
  Ewald energy   TEWEN  =      -907.56678780
  -1/2 Hartree   DENC   =       -45.63644495
  -exchange  EXHF       =         0.00000000
  -V(xc)+E(xc)   XCENC  =       -76.79671622
  PAW double counting   =       265.93453375     -123.69690146
  entropy T*S    EENTRO =         0.00000000
  eigenvalues    EBANDS =        14.24857162
  atomic energy  EATOM  =       826.37398168
  ---------------------------------------------------
  free energy    TOTEN  =       -34.45031358 eV

  energy without entropy =      -34.45031358  energy(sigma->0) =      -34.45031358


--------------------------------------------------------------------------------------------------------




 average (electrostatic) potential at core
  the test charge radii are     0.9892
  (the norm of the test charge is              1.0000)
       1 -84.3499       2 -84.3472       3 -84.3542       4 -84.3571       5 -84.3510
       6 -84.3459       7 -84.3475       8 -84.3523
 
 
 
 E-fermi :   5.2496     XC(G=0):  -9.5533     alpha+bet :-11.7379


 k-point   1 :       0.0000    0.0000    0.0000
  band No.  band energies     occupation 
      1      -6.6372      2.00000
      2      -2.6449      2.00000
      3      -2.6385      2.00000
      4      -2.6317      2.00000
      5      -2.6289      2.00000
      6      -2.6191      2.00000
      7      -2.6119      2.00000
      8       2.3749      2.00000
      9       2.3774      2.00000
     10       2.3792      2.00000
     11       2.3827      2.00000
     12       2.3865      2.00000
     13       2.3953      2.00000
     14       5.0720      2.00000
     15       5.0812      2.00000
     16       5.0871      2.00000
     17       6.1450      0.00000
     18       6.1510      0.00000
     19       6.1549      0.00000
     20       6.1563      0.00000
     21       6.1623      0.00000
     22       6.1701      0.00000
     23       7.8535      0.00000
     24       7.8562      0.00000
     25       7.8619      0.00000
     26       8.1267      0.00000
     27      13.2003      0.00000
     28      13.2618      0.00000
     29      13.2699      0.00000
     30      15.0971      0.00000
     31      15.1372      0.00000
     32      15.1745      0.00000
     33      15.2479      0.00000
     34      15.3097      0.00000
     35      15.6341      0.00000
     36      16.3823      0.00000
     37      16.4196      0.00000
     38      16.4555      0.00000
     39      16.5297      0.00000
     40      16.7187      0.00000
     41      16.7521      0.00000
     42      16.7659      0.00000
     43      16.8683      0.00000
     44      17.2295      0.00000
     45      17.9128      0.00000
     46      17.9565      0.00000
     47      17.9956      0.00000
     48      18.0178      0.00000


--------------------------------------------------------------------------------------------------------


 soft charge-density along one line, spin component           1
         0         1         2         3         4         5         6         7         8         9
 total charge-density along one line
 
 pseudopotential strength for first ion, spin component:           1
 18.662   0.000   0.000   0.000   0.000   0.000   0.000   0.000
  0.000   0.006   0.000   0.000   0.000   0.000   0.000   0.000
  0.000   0.000   4.216   0.000   0.000  -0.004   0.000   0.000
  0.000   0.000   0.000   4.216   0.000   0.000  -0.004   0.000
  0.000   0.000   0.000   0.000   4.216   0.000   0.000  -0.004
  0.000   0.000  -0.004   0.000   0.000   0.005   0.000   0.000
  0.000   0.000   0.000  -0.004   0.000   0.000   0.005   0.000
  0.000   0.000   0.000   0.000  -0.004   0.000   0.000   0.005
 total augmentation occupancy for first ion, spin component:           1
  2.000   0.000   0.000   0.000   0.000   0.000   0.000   0.000
  0.000   0.000   0.000   0.000   0.000   0.000   0.000   0.000
  0.000   0.000   0.667   0.000   0.000   0.000   0.000   0.000
  0.000   0.000   0.000   0.667   0.000   0.000   0.000   0.000
  0.000   0.000   0.000   0.000   0.667   0.000   0.000   0.000
  0.000   0.000   0.000   0.000   0.000   0.000   0.000   0.000
  0.000   0.000   0.000   0.000   0.000   0.000   0.000   0.000
  0.000   0.000   0.000   0.000   0.000   0.000   0.000   0.000


----------------------------------------- Iteration    1(   3)  ---------------------------------------


     EDDAV:  cpu time    0.39: real time    0.39
       DOS:  cpu time    0.00: real time    0.00
    --------------------------------------------
      LOOP:  cpu time    0.40: real time    0.40

 eigenvalue-minimisations  :    96
 total energy-change (2. order) :-0.1674052E+00  (-0.1674052E+00)
 number of electron      32.0000000 magnetization 
 augmentation part       32.0000000 magnetization 

 Free energy of the ion-electron system (eV)
  ---------------------------------------------------
  alpha Z        PSCENC =        12.68944982
  Ewald energy   TEWEN  =      -907.56678780
  -1/2 Hartree   DENC   =       -45.63644495
  -exchange  EXHF       =         0.00000000
  -V(xc)+E(xc)   XCENC  =       -76.79671622
  PAW double counting   =       265.93453375     -123.69690146
  entropy T*S    EENTRO =         0.00000000
  eigenvalues    EBANDS =        14.08116645
  atomic energy  EATOM  =       826.37398168
  ---------------------------------------------------
  free energy    TOTEN  =       -34.61771874 eV

  energy without entropy =      -34.61771874  energy(sigma->0) =      -34.61771874


--------------------------------------------------------------------------------------------------------




 average (electrostatic) potential at core
  the test charge radii are     0.9892
  (the norm of the test charge is              1.0000)
       1 -84.3499       2 -84.3472       3 -84.3542       4 -84.3571       5 -84.3510
       6 -84.3459       7 -84.3475       8 -84.3523
 
 
 
 E-fermi :   5.2110     XC(G=0):  -9.5533     alpha+bet :-11.7379


 k-point   1 :       0.0000    0.0000    0.0000
  band No.  band energies     occupation 
      1      -6.6372      2.00000
      2      -2.6471      2.00000
      3      -2.6406      2.00000
      4      -2.6339      2.00000
      5      -2.6306      2.00000
      6      -2.6216      2.00000
      7      -2.6143      2.00000
      8       2.3708      2.00000
      9       2.3747      2.00000
     10       2.3757      2.00000
     11       2.3784      2.00000
     12       2.3807      2.00000
     13       2.3855      2.00000
     14       5.0632      2.00000
     15       5.0656      2.00000
     16       5.0713      2.00000
     17       6.1417      0.00000
     18       6.1485      0.00000
     19       6.1505      0.00000
     20       6.1537      0.00000
     21       6.1594      0.00000
     22       6.1655      0.00000
     23       7.8469      0.00000
     24       7.8502      0.00000
     25       7.8515      0.00000
     26       8.1178      0.00000
     27      13.1844      0.00000
     28      13.1866      0.00000
     29      13.2693      0.00000
     30      15.0809      0.00000
     31      15.0897      0.00000
     32      15.0974      0.00000
     33      15.1110      0.00000
     34      15.1267      0.00000
     35      15.1795      0.00000
     36      16.3206      0.00000
     37      16.3318      0.00000
     38      16.3421      0.00000
     39      16.3608      0.00000
     40      16.4317      0.00000
     41      16.4855      0.00000
     42      16.7111      0.00000
     43      16.7174      0.00000
     44      16.8160      0.00000
     45      17.8871      0.00000
     46      17.8966      0.00000
     47      17.9197      0.00000
     48      17.9378      0.00000


--------------------------------------------------------------------------------------------------------


 soft charge-density along one line, spin component           1
         0         1         2         3         4         5         6         7         8         9
 total charge-density along one line
 
 pseudopotential strength for first ion, spin component:           1
 18.662   0.000   0.000   0.000   0.000   0.000   0.000   0.000
  0.000   0.006   0.000   0.000   0.000   0.000   0.000   0.000
  0.000   0.000   4.216   0.000   0.000  -0.004   0.000   0.000
  0.000   0.000   0.000   4.216   0.000   0.000  -0.004   0.000
  0.000   0.000   0.000   0.000   4.216   0.000   0.000  -0.004
  0.000   0.000  -0.004   0.000   0.000   0.005   0.000   0.000
  0.000   0.000   0.000  -0.004   0.000   0.000   0.005   0.000
  0.000   0.000   0.000   0.000  -0.004   0.000   0.000   0.005
 total augmentation occupancy for first ion, spin component:           1
  2.000   0.000   0.000   0.000   0.000   0.000   0.000   0.000
  0.000   0.000   0.000   0.000   0.000   0.000   0.000   0.000
  0.000   0.000   0.667   0.000   0.000   0.000   0.000   0.000
  0.000   0.000   0.000   0.667   0.000   0.000   0.000   0.000
  0.000   0.000   0.000   0.000   0.667   0.000   0.000   0.000
  0.000   0.000   0.000   0.000   0.000   0.000   0.000   0.000
  0.000   0.000   0.000   0.000   0.000   0.000   0.000   0.000
  0.000   0.000   0.000   0.000   0.000   0.000   0.000   0.000


----------------------------------------- Iteration    1(   4)  ---------------------------------------


     EDDAV:  cpu time    2.00: real time    2.01
       DOS:  cpu time    0.00: real time    0.00
    --------------------------------------------
      LOOP:  cpu time    2.01: real time    2.01

 eigenvalue-minimisations  :   192
 total energy-change (2. order) :-0.3547266E-03  (-0.3547266E-03)
 number of electron      32.0000000 magnetization 
 augmentation part       32.0000000 magnetization 

 Free energy of the ion-electron system (eV)
  ---------------------------------------------------
  alpha Z        PSCENC =        12.68944982
  Ewald energy   TEWEN  =      -907.56678780
  -1/2 Hartree   DENC   =       -45.63644495
  -exchange  EXHF       =         0.00000000
  -V(xc)+E(xc)   XCENC  =       -76.79671622
  PAW double counting   =       265.93453375     -123.69690146
  entropy T*S    EENTRO =         0.00000000
  eigenvalues    EBANDS =        14.08081173
  atomic energy  EATOM  =       826.37398168
  ---------------------------------------------------
  free energy    TOTEN  =       -34.61807347 eV

  energy without entropy =      -34.61807347  energy(sigma->0) =      -34.61807347


--------------------------------------------------------------------------------------------------------




 average (electrostatic) potential at core
  the test charge radii are     0.9892
  (the norm of the test charge is              1.0000)
       1 -84.3499       2 -84.3472       3 -84.3542       4 -84.3571       5 -84.3510
       6 -84.3459       7 -84.3475       8 -84.3523
 
 
 
 E-fermi :   5.1997     XC(G=0):  -9.5533     alpha+bet :-11.7379


 k-point   1 :       0.0000    0.0000    0.0000
  band No.  band energies     occupation 
      1      -6.6372      2.00000
      2      -2.6471      2.00000
      3      -2.6406      2.00000
      4      -2.6339      2.00000
      5      -2.6306      2.00000
      6      -2.6216      2.00000
      7      -2.6143      2.00000
      8       2.3708      2.00000
      9       2.3747      2.00000
     10       2.3757      2.00000
     11       2.3784      2.00000
     12       2.3807      2.00000
     13       2.3855      2.00000
     14       5.0631      2.00000
     15       5.0656      2.00000
     16       5.0712      2.00000
     17       6.1416      0.00000
     18       6.1485      0.00000
     19       6.1505      0.00000
     20       6.1536      0.00000
     21       6.1594      0.00000
     22       6.1655      0.00000
     23       7.8469      0.00000
     24       7.8502      0.00000
     25       7.8514      0.00000
     26       8.1178      0.00000
     27      13.1837      0.00000
     28      13.1837      0.00000
     29      13.2693      0.00000
     30      15.0734      0.00000
     31      15.0790      0.00000
     32      15.0843      0.00000
     33      15.0870      0.00000
     34      15.0901      0.00000
     35      15.0948      0.00000
     36      16.2934      0.00000
     37      16.3048      0.00000
     38      16.3054      0.00000
     39      16.3128      0.00000
     40      16.3165      0.00000
     41      16.3297      0.00000
     42      16.7015      0.00000
     43      16.7052      0.00000
     44      16.7065      0.00000
     45      17.8740      0.00000
     46      17.8805      0.00000
     47      17.8876      0.00000
     48      17.8910      0.00000


--------------------------------------------------------------------------------------------------------


 soft charge-density along one line, spin component           1
         0         1         2         3         4         5         6         7         8         9
 total charge-density along one line
 
 pseudopotential strength for first ion, spin component:           1
 18.662   0.000   0.000   0.000   0.000   0.000   0.000   0.000
  0.000   0.006   0.000   0.000   0.000   0.000   0.000   0.000
  0.000   0.000   4.216   0.000   0.000  -0.004   0.000   0.000
  0.000   0.000   0.000   4.216   0.000   0.000  -0.004   0.000
  0.000   0.000   0.000   0.000   4.216   0.000   0.000  -0.004
  0.000   0.000  -0.004   0.000   0.000   0.005   0.000   0.000
  0.000   0.000   0.000  -0.004   0.000   0.000   0.005   0.000
  0.000   0.000   0.000   0.000  -0.004   0.000   0.000   0.005
 total augmentation occupancy for first ion, spin component:           1
  2.000   0.000   0.000   0.000   0.000   0.000   0.000   0.000
  0.000   0.000   0.000   0.000   0.000   0.000   0.000   0.000
  0.000   0.000   0.667   0.000   0.000   0.000   0.000   0.000
  0.000   0.000   0.000   0.667   0.000   0.000   0.000   0.000
  0.000   0.000   0.000   0.000   0.667   0.000   0.000   0.000
  0.000   0.000   0.000   0.000   0.000   0.000   0.000   0.000
  0.000   0.000   0.000   0.000   0.000   0.000   0.000   0.000
  0.000   0.000   0.000   0.000   0.000   0.000   0.000   0.000


----------------------------------------- Iteration    1(   5)  ---------------------------------------


     EDDAV:  cpu time    0.38: real time    0.39
       DOS:  cpu time    0.00: real time    0.00
    CHARGE:  cpu time    0.02: real time    0.02
    MIXING:  cpu time    0.00: real time    0.00
    --------------------------------------------
      LOOP:  cpu time    0.42: real time    0.42

 eigenvalue-minimisations  :    96
 total energy-change (2. order) :-0.3058062E-08  (-0.3058470E-08)
 number of electron      31.9999999 magnetization 
 augmentation part       -1.8053348 magnetization 

 Broyden mixing:
  rms(total) = 0.79306E+00    rms(broyden)= 0.79301E+00
  rms(prec ) = 0.15229E+01
  weight for this iteration     100.00

 Free energy of the ion-electron system (eV)
  ---------------------------------------------------
  alpha Z        PSCENC =        12.68944982
  Ewald energy   TEWEN  =      -907.56678780
  -1/2 Hartree   DENC   =       -45.63644495
  -exchange  EXHF       =         0.00000000
  -V(xc)+E(xc)   XCENC  =       -76.79671622
  PAW double counting   =       265.93453375     -123.69690146
  entropy T*S    EENTRO =         0.00000000
  eigenvalues    EBANDS =        14.08081173
  atomic energy  EATOM  =       826.37398168
  ---------------------------------------------------
  free energy    TOTEN  =       -34.61807347 eV

  energy without entropy =      -34.61807347  energy(sigma->0) =      -34.61807347


--------------------------------------------------------------------------------------------------------




 average (electrostatic) potential at core
  the test charge radii are     0.9892
  (the norm of the test charge is              1.0000)
       1 -84.3499       2 -84.3472       3 -84.3542       4 -84.3571       5 -84.3510
       6 -84.3459       7 -84.3475       8 -84.3523
 
 
 
 E-fermi :   5.1966     XC(G=0):  -9.5533     alpha+bet :-11.7379


 k-point   1 :       0.0000    0.0000    0.0000
  band No.  band energies     occupation 
      1      -6.6372      2.00000
      2      -2.6471      2.00000
      3      -2.6406      2.00000
      4      -2.6339      2.00000
      5      -2.6306      2.00000
      6      -2.6216      2.00000
      7      -2.6143      2.00000
      8       2.3708      2.00000
      9       2.3747      2.00000
     10       2.3757      2.00000
     11       2.3784      2.00000
     12       2.3807      2.00000
     13       2.3855      2.00000
     14       5.0631      2.00000
     15       5.0656      2.00000
     16       5.0712      2.00000
     17       6.1416      0.00000
     18       6.1485      0.00000
     19       6.1505      0.00000
     20       6.1536      0.00000
     21       6.1594      0.00000
     22       6.1655      0.00000
     23       7.8469      0.00000
     24       7.8502      0.00000
     25       7.8514      0.00000
     26       8.1178      0.00000
     27      13.1837      0.00000
     28      13.1837      0.00000
     29      13.2693      0.00000
     30      15.0733      0.00000
     31      15.0790      0.00000
     32      15.0842      0.00000
     33      15.0869      0.00000
     34      15.0901      0.00000
     35      15.0948      0.00000
     36      16.2929      0.00000
     37      16.3045      0.00000
     38      16.3051      0.00000
     39      16.3126      0.00000
     40      16.3163      0.00000
     41      16.3293      0.00000
     42      16.7014      0.00000
     43      16.7050      0.00000
     44      16.7064      0.00000
     45      17.8697      0.00000
     46      17.8764      0.00000
     47      17.8784      0.00000
     48      17.8845      0.00000


--------------------------------------------------------------------------------------------------------


 soft charge-density along one line, spin component           1
         0         1         2         3         4         5         6         7         8         9
 total charge-density along one line
 
 pseudopotential strength for first ion, spin component:           1
 18.662   0.000   0.000   0.000   0.000   0.000   0.000   0.000
  0.000   0.006   0.000   0.000   0.000   0.000   0.000   0.000
  0.000   0.000   4.216   0.000   0.000  -0.004   0.000   0.000
  0.000   0.000   0.000   4.216   0.000   0.000  -0.004   0.000
  0.000   0.000   0.000   0.000   4.216   0.000   0.000  -0.004
  0.000   0.000  -0.004   0.000   0.000   0.005   0.000   0.000
  0.000   0.000   0.000  -0.004   0.000   0.000   0.005   0.000
  0.000   0.000   0.000   0.000  -0.004   0.000   0.000   0.005
 total augmentation occupancy for first ion, spin component:           1
  1.380  -1.051  -0.001   0.002  -0.002   0.001  -0.002   0.002
 -1.051   0.918   0.000  -0.001   0.002  -0.001   0.002  -0.002
 -0.001   0.000   1.165  -0.001   0.001  -0.758   0.001  -0.002
  0.002  -0.001  -0.001   1.163   0.000   0.001  -0.757   0.001
 -0.002   0.002   0.001   0.000   1.166  -0.002   0.001  -0.759
  0.001  -0.001  -0.758   0.001  -0.002   0.569  -0.001   0.002
 -0.002   0.002   0.001  -0.757   0.001  -0.001   0.569  -0.001
  0.002  -0.002  -0.002   0.001  -0.759   0.002  -0.001   0.570


----------------------------------------- Iteration    1(   6)  ---------------------------------------


    POTLOK:  cpu time    0.02: real time    0.02
    SETDIJ:  cpu time    0.02: real time    0.02
    EDDIAG:  cpu time    0.03: real time    0.03
  RMM-DIIS:  cpu time    0.03: real time    0.03
    ORTHCH:  cpu time    0.01: real time    0.01
       DOS:  cpu time    0.00: real time    0.00
    CHARGE:  cpu time    0.02: real time    0.02
    MIXING:  cpu time    0.00: real time    0.00
    --------------------------------------------
      LOOP:  cpu time    0.14: real time    0.14

 eigenvalue-minimisations  :    96
 total energy-change (2. order) : 0.1001708E+01  (-0.3198052E-01)
 number of electron      31.9999999 magnetization 
 augmentation part       -1.7684068 magnetization 

 Broyden mixing:
  rms(total) = 0.47399E+00    rms(broyden)= 0.47399E+00
  rms(prec ) = 0.91066E+00
  weight for this iteration     100.00

 eigenvalues of (default mixing * dielectric matrix)
  average eigenvalue GAMMA=   2.4573
  2.4573

 Free energy of the ion-electron system (eV)
  ---------------------------------------------------
  alpha Z        PSCENC =        12.68944982
  Ewald energy   TEWEN  =      -907.56678780
  -1/2 Hartree   DENC   =       -54.68298005
  -exchange  EXHF       =         0.00000000
  -V(xc)+E(xc)   XCENC  =       -75.44941190
  PAW double counting   =       286.06062242     -144.35892924
  entropy T*S    EENTRO =         0.00000000
  eigenvalues    EBANDS =        23.31768931
  atomic energy  EATOM  =       826.37398168
  ---------------------------------------------------
  free energy    TOTEN  =       -33.61636577 eV

  energy without entropy =      -33.61636577  energy(sigma->0) =      -33.61636577


--------------------------------------------------------------------------------------------------------




 average (electrostatic) potential at core
  the test charge radii are     0.9892
  (the norm of the test charge is              1.0000)
       1 -83.8325       2 -83.8312       3 -83.8346       4 -83.8359       5 -83.8330
       6 -83.8305       7 -83.8313       8 -83.8337
 
 
 
 E-fermi :   5.5481     XC(G=0):  -9.4504     alpha+bet :-11.7379


 k-point   1 :       0.0000    0.0000    0.0000
  band No.  band energies     occupation 
      1      -6.3788      2.00000
      2      -2.3459      2.00000
      3      -2.3404      2.00000
      4      -2.3348      2.00000
      5      -2.3318      2.00000
      6      -2.3241      2.00000
      7      -2.3179      2.00000
      8       2.6327      2.00000
      9       2.6363      2.00000
     10       2.6370      2.00000
     11       2.6394      2.00000
     12       2.6412      2.00000
     13       2.6456      2.00000
     14       5.3966      2.00000
     15       5.3989      2.00000
     16       5.4046      2.00000
     17       6.2573      0.00000
     18       6.2637      0.00000
     19       6.2651      0.00000
     20       6.2682      0.00000
     21       6.2730      0.00000
     22       6.2786      0.00000
     23       8.0543      0.00000
     24       8.0576      0.00000
     25       8.0589      0.00000
     26       8.4862      0.00000
     27      13.3050      0.00000
     28      13.3568      0.00000
     29      13.3569      0.00000
     30      15.3703      0.00000
     31      15.3758      0.00000
     32      15.3803      0.00000
     33      15.3831      0.00000
     34      15.3856      0.00000
     35      15.3902      0.00000
     36      16.5303      0.00000
     37      16.5408      0.00000
     38      16.5414      0.00000
     39      16.5482      0.00000
     40      16.5516      0.00000
     41      16.5634      0.00000
     42      16.7460      0.00000
     43      16.7496      0.00000
     44      16.7511      0.00000
     45      18.1572      0.00000
     46      18.1659      0.00000
     47      18.1664      0.00000
     48      18.1727      0.00000


--------------------------------------------------------------------------------------------------------


 soft charge-density along one line, spin component           1
         0         1         2         3         4         5         6         7         8         9
 total charge-density along one line
 
 pseudopotential strength for first ion, spin component:           1
 18.635  -0.001   0.000   0.000   0.000   0.000   0.000   0.000
 -0.001   0.006   0.000   0.000   0.000   0.000   0.000   0.000
  0.000   0.000   4.221   0.000   0.000  -0.004   0.000   0.000
  0.000   0.000   0.000   4.221   0.000   0.000  -0.004   0.000
  0.000   0.000   0.000   0.000   4.221   0.000   0.000  -0.004
  0.000   0.000  -0.004   0.000   0.000   0.005   0.000   0.000
  0.000   0.000   0.000  -0.004   0.000   0.000   0.005   0.000
  0.000   0.000   0.000   0.000  -0.004   0.000   0.000   0.005
 total augmentation occupancy for first ion, spin component:           1
  1.351  -1.090  -0.002   0.002  -0.002   0.001  -0.003   0.002
 -1.090   0.997   0.000  -0.001   0.001  -0.001   0.003  -0.002
 -0.002   0.000   1.147  -0.001   0.001  -0.782   0.001  -0.002
  0.002  -0.001  -0.001   1.146  -0.001   0.001  -0.781   0.001
 -0.002   0.001   0.001  -0.001   1.148  -0.002   0.001  -0.783
  0.001  -0.001  -0.782   0.001  -0.002   0.608  -0.001   0.002
 -0.003   0.003   0.001  -0.781   0.001  -0.001   0.607  -0.001
  0.002  -0.002  -0.002   0.001  -0.783   0.002  -0.001   0.609


----------------------------------------- Iteration    1(   7)  ---------------------------------------


    POTLOK:  cpu time    0.02: real time    0.02
    SETDIJ:  cpu time    0.02: real time    0.02
    EDDIAG:  cpu time    0.02: real time    0.02
  RMM-DIIS:  cpu time    0.03: real time    0.03
    ORTHCH:  cpu time    0.01: real time    0.01
       DOS:  cpu time    0.00: real time    0.00
    CHARGE:  cpu time    0.02: real time    0.02
    MIXING:  cpu time    0.00: real time    0.00
    --------------------------------------------
      LOOP:  cpu time    0.12: real time    0.13

 eigenvalue-minimisations  :    96
 total energy-change (2. order) : 0.4246590E+00  (-0.7388166E-01)
 number of electron      31.9999999 magnetization 
 augmentation part       -1.7214521 magnetization 

 Broyden mixing:
  rms(total) = 0.46254E-01    rms(broyden)= 0.46244E-01
  rms(prec ) = 0.78465E-01
  weight for this iteration     100.00

 eigenvalues of (default mixing * dielectric matrix)
  average eigenvalue GAMMA=   2.5299
  2.5299  2.5299

 Free energy of the ion-electron system (eV)
  ---------------------------------------------------
  alpha Z        PSCENC =        12.68944982
  Ewald energy   TEWEN  =      -907.56678780
  -1/2 Hartree   DENC   =       -70.51381935
  -exchange  EXHF       =         0.00000000
  -V(xc)+E(xc)   XCENC  =       -73.00929158
  PAW double counting   =       313.72438169     -172.73638616
  entropy T*S    EENTRO =         0.00000000
  eigenvalues    EBANDS =        37.84676490
  atomic energy  EATOM  =       826.37398168
  ---------------------------------------------------
  free energy    TOTEN  =       -33.19170680 eV

  energy without entropy =      -33.19170680  energy(sigma->0) =      -33.19170680


--------------------------------------------------------------------------------------------------------




 average (electrostatic) potential at core
  the test charge radii are     0.9892
  (the norm of the test charge is              1.0000)
       1 -83.1454       2 -83.1441       3 -83.1470       4 -83.1471       5 -83.1458
       6 -83.1440       7 -83.1448       8 -83.1461
 
 
 
 E-fermi :   6.0954     XC(G=0):  -9.2018     alpha+bet :-11.7379


 k-point   1 :       0.0000    0.0000    0.0000
  band No.  band energies     occupation 
      1      -5.9621      2.00000
      2      -1.8774      2.00000
      3      -1.8727      2.00000
      4      -1.8681      2.00000
      5      -1.8653      2.00000
      6      -1.8588      2.00000
      7      -1.8537      2.00000
      8       3.0458      2.00000
      9       3.0495      2.00000
     10       3.0496      2.00000
     11       3.0521      2.00000
     12       3.0532      2.00000
     13       3.0575      2.00000
     14       5.9213      2.00000
     15       5.9235      2.00000
     16       5.9290      2.00000
     17       6.5171      0.00000
     18       6.5229      0.00000
     19       6.5236      0.00000
     20       6.5266      0.00000
     21       6.5304      0.00000
     22       6.5353      0.00000
     23       8.3794      0.00000
     24       8.3827      0.00000
     25       8.3840      0.00000
     26       9.0452      0.00000
     27      13.6013      0.00000
     28      13.6204      0.00000
     29      13.6204      0.00000
     30      15.8213      0.00000
     31      15.8263      0.00000
     32      15.8303      0.00000
     33      15.8328      0.00000
     34      15.8351      0.00000
     35      15.8392      0.00000
     36      16.9003      0.00000
     37      16.9036      0.00000
     38      16.9052      0.00000
     39      16.9515      0.00000
     40      16.9612      0.00000
     41      16.9614      0.00000
     42      16.9674      0.00000
     43      16.9702      0.00000
     44      16.9811      0.00000
     45      18.6526      0.00000
     46      18.6628      0.00000
     47      18.6688      0.00000
     48      18.6722      0.00000


--------------------------------------------------------------------------------------------------------


 soft charge-density along one line, spin component           1
         0         1         2         3         4         5         6         7         8         9
 total charge-density along one line
 
 pseudopotential strength for first ion, spin component:           1
 18.596  -0.001   0.000   0.000   0.000   0.000   0.000   0.000
 -0.001   0.006   0.000   0.000   0.000   0.000   0.000   0.000
  0.000   0.000   4.227   0.000   0.000  -0.005   0.000   0.000
  0.000   0.000   0.000   4.227   0.000   0.000  -0.005   0.000
  0.000   0.000   0.000   0.000   4.227   0.000   0.000  -0.005
  0.000   0.000  -0.005   0.000   0.000   0.005   0.000   0.000
  0.000   0.000   0.000  -0.005   0.000   0.000   0.005   0.000
  0.000   0.000   0.000   0.000  -0.005   0.000   0.000   0.005
 total augmentation occupancy for first ion, spin component:           1
  1.315  -1.112  -0.002   0.002  -0.002   0.001  -0.003   0.003
 -1.112   1.058  -0.001   0.000   0.000   0.000   0.003  -0.002
 -0.002  -0.001   1.122  -0.002   0.002  -0.805   0.001  -0.002
  0.002   0.000  -0.002   1.121  -0.001   0.001  -0.804   0.001
 -0.002   0.000   0.002  -0.001   1.123  -0.002   0.001  -0.806
  0.001   0.000  -0.805   0.001  -0.002   0.652  -0.001   0.002
 -0.003   0.003   0.001  -0.804   0.001  -0.001   0.650  -0.001
  0.003  -0.002  -0.002   0.001  -0.806   0.002  -0.001   0.653


----------------------------------------- Iteration    1(   8)  ---------------------------------------


    POTLOK:  cpu time    0.02: real time    0.02
    SETDIJ:  cpu time    0.02: real time    0.02
    EDDIAG:  cpu time    0.02: real time    0.02
  RMM-DIIS:  cpu time    0.02: real time    0.02
    ORTHCH:  cpu time    0.01: real time    0.01
       DOS:  cpu time    0.00: real time    0.00
    CHARGE:  cpu time    0.02: real time    0.02
    MIXING:  cpu time    0.00: real time    0.00
    --------------------------------------------
      LOOP:  cpu time    0.12: real time    0.13

 eigenvalue-minimisations  :    96
 total energy-change (2. order) :-0.3197469E-01  (-0.2160597E-02)
 number of electron      31.9999999 magnetization 
 augmentation part       -1.7275444 magnetization 

 Broyden mixing:
  rms(total) = 0.75038E-02    rms(broyden)= 0.75033E-02
  rms(prec ) = 0.17983E-01
  weight for this iteration     100.00

 eigenvalues of (default mixing * dielectric matrix)
  average eigenvalue GAMMA=   2.1204
  1.2721  2.8639  2.2252

 Free energy of the ion-electron system (eV)
  ---------------------------------------------------
  alpha Z        PSCENC =        12.68944982
  Ewald energy   TEWEN  =      -907.56678780
  -1/2 Hartree   DENC   =       -70.39868599
  -exchange  EXHF       =         0.00000000
  -V(xc)+E(xc)   XCENC  =       -72.96575746
  PAW double counting   =       307.36470278     -166.19197287
  entropy T*S    EENTRO =         0.00000000
  eigenvalues    EBANDS =        37.47138834
  atomic energy  EATOM  =       826.37398168
  ---------------------------------------------------
  free energy    TOTEN  =       -33.22368150 eV

  energy without entropy =      -33.22368150  energy(sigma->0) =      -33.22368150


--------------------------------------------------------------------------------------------------------




 average (electrostatic) potential at core
  the test charge radii are     0.9892
  (the norm of the test charge is              1.0000)
       1 -83.2479       2 -83.2457       3 -83.2513       4 -83.2531       5 -83.2488
       6 -83.2448       7 -83.2462       8 -83.2498
 
 
 
 E-fermi :   6.0341     XC(G=0):  -9.1504     alpha+bet :-11.7379


 k-point   1 :       0.0000    0.0000    0.0000
  band No.  band energies     occupation 
      1      -5.9632      2.00000
      2      -1.8902      2.00000
      3      -1.8850      2.00000
      4      -1.8798      2.00000
      5      -1.8769      2.00000
      6      -1.8697      2.00000
      7      -1.8639      2.00000
      8       3.0338      2.00000
      9       3.0378      2.00000
     10       3.0380      2.00000
     11       3.0406      2.00000
     12       3.0419      2.00000
     13       3.0465      2.00000
     14       5.9052      2.00000
     15       5.9074      2.00000
     16       5.9129      2.00000
     17       6.5675      0.00000
     18       6.5735      0.00000
     19       6.5745      0.00000
     20       6.5773      0.00000
     21       6.5817      0.00000
     22       6.5867      0.00000
     23       8.3687      0.00000
     24       8.3721      0.00000
     25       8.3733      0.00000
     26       9.0381      0.00000
     27      13.6064      0.00000
     28      13.6064      0.00000
     29      13.7782      0.00000
     30      15.8065      0.00000
     31      15.8112      0.00000
     32      15.8158      0.00000
     33      15.8181      0.00000
     34      15.8210      0.00000
     35      15.8248      0.00000
     36      16.9368      0.00000
     37      16.9399      0.00000
     38      16.9414      0.00000
     39      16.9577      0.00000
     40      16.9679      0.00000
     41      16.9681      0.00000
     42      16.9741      0.00000
     43      16.9770      0.00000
     44      16.9885      0.00000
     45      18.6887      0.00000
     46      18.6995      0.00000
     47      18.7073      0.00000
     48      18.7099      0.00000


--------------------------------------------------------------------------------------------------------


 soft charge-density along one line, spin component           1
         0         1         2         3         4         5         6         7         8         9
 total charge-density along one line
 
 pseudopotential strength for first ion, spin component:           1
 18.599  -0.001   0.000   0.000   0.000   0.000   0.000   0.000
 -0.001   0.006   0.000   0.000   0.000   0.000   0.000   0.000
  0.000   0.000   4.224   0.000   0.000  -0.005   0.000   0.000
  0.000   0.000   0.000   4.224   0.000   0.000  -0.005   0.000
  0.000   0.000   0.000   0.000   4.224   0.000   0.000  -0.005
  0.000   0.000  -0.005   0.000   0.000   0.005   0.000   0.000
  0.000   0.000   0.000  -0.005   0.000   0.000   0.005   0.000
  0.000   0.000   0.000   0.000  -0.005   0.000   0.000   0.005
 total augmentation occupancy for first ion, spin component:           1
  1.320  -1.092  -0.002   0.002  -0.002   0.001  -0.003   0.003
 -1.092   1.020  -0.001  -0.001   0.001  -0.001   0.003  -0.002
 -0.002  -0.001   1.123  -0.001   0.001  -0.801   0.001  -0.002
  0.002  -0.001  -0.001   1.122  -0.001   0.001  -0.800   0.001
 -0.002   0.001   0.001  -0.001   1.124  -0.002   0.001  -0.801
  0.001  -0.001  -0.801   0.001  -0.002   0.647  -0.001   0.002
 -0.003   0.003   0.001  -0.800   0.001  -0.001   0.646  -0.001
  0.003  -0.002  -0.002   0.001  -0.801   0.002  -0.001   0.647


----------------------------------------- Iteration    1(   9)  ---------------------------------------


    POTLOK:  cpu time    0.02: real time    0.02
    SETDIJ:  cpu time    0.02: real time    0.02
    EDDIAG:  cpu time    0.02: real time    0.02
  RMM-DIIS:  cpu time    0.04: real time    0.04
    ORTHCH:  cpu time    0.01: real time    0.01
       DOS:  cpu time    0.00: real time    0.00
    CHARGE:  cpu time    0.02: real time    0.02
    MIXING:  cpu time    0.00: real time    0.00
    --------------------------------------------
      LOOP:  cpu time    0.14: real time    0.14

 eigenvalue-minimisations  :   105
 total energy-change (2. order) :-0.1136211E-02  (-0.1265917E-03)
 number of electron      31.9999999 magnetization 
 augmentation part       -1.7274633 magnetization 

 Broyden mixing:
  rms(total) = 0.41773E-02    rms(broyden)= 0.41772E-02
  rms(prec ) = 0.68478E-02
  weight for this iteration     100.00

 eigenvalues of (default mixing * dielectric matrix)
  average eigenvalue GAMMA=   2.2863
  0.9859  3.2028  2.6661  2.2905

 Free energy of the ion-electron system (eV)
  ---------------------------------------------------
  alpha Z        PSCENC =        12.68944982
  Ewald energy   TEWEN  =      -907.56678780
  -1/2 Hartree   DENC   =       -70.79546200
  -exchange  EXHF       =         0.00000000
  -V(xc)+E(xc)   XCENC  =       -72.90650532
  PAW double counting   =       307.71580282     -166.55348346
  entropy T*S    EENTRO =         0.00000000
  eigenvalues    EBANDS =        37.81818655
  atomic energy  EATOM  =       826.37398168
  ---------------------------------------------------
  free energy    TOTEN  =       -33.22481771 eV

  energy without entropy =      -33.22481771  energy(sigma->0) =      -33.22481771


--------------------------------------------------------------------------------------------------------




 average (electrostatic) potential at core
  the test charge radii are     0.9892
  (the norm of the test charge is              1.0000)
       1 -83.2338       2 -83.2323       3 -83.2362       4 -83.2378       5 -83.2344
       6 -83.2315       7 -83.2324       8 -83.2352
 
 
 
 E-fermi :   6.0488     XC(G=0):  -9.1363     alpha+bet :-11.7379


 k-point   1 :       0.0000    0.0000    0.0000
  band No.  band energies     occupation 
      1      -5.9520      2.00000
      2      -1.8786      2.00000
      3      -1.8735      2.00000
      4      -1.8686      2.00000
      5      -1.8657      2.00000
      6      -1.8588      2.00000
      7      -1.8532      2.00000
      8       3.0439      2.00000
      9       3.0477      2.00000
     10       3.0479      2.00000
     11       3.0504      2.00000
     12       3.0517      2.00000
     13       3.0561      2.00000
     14       5.9173      2.00000
     15       5.9195      2.00000
     16       5.9250      2.00000
     17       6.5815      0.00000
     18       6.5875      0.00000
     19       6.5885      0.00000
     20       6.5914      0.00000
     21       6.5958      0.00000
     22       6.6008      0.00000
     23       8.3763      0.00000
     24       8.3797      0.00000
     25       8.3810      0.00000
     26       9.0526      0.00000
     27      13.6116      0.00000
     28      13.6117      0.00000
     29      13.8105      0.00000
     30      15.8170      0.00000
     31      15.8218      0.00000
     32      15.8262      0.00000
     33      15.8287      0.00000
     34      15.8313      0.00000
     35      15.8353      0.00000
     36      16.9469      0.00000
     37      16.9500      0.00000
     38      16.9515      0.00000
     39      16.9700      0.00000
     40      16.9800      0.00000
     41      16.9802      0.00000
     42      16.9861      0.00000
     43      16.9890      0.00000
     44      17.0003      0.00000
     45      18.7065      0.00000
     46      18.7174      0.00000
     47      18.7257      0.00000
     48      18.7282      0.00000


--------------------------------------------------------------------------------------------------------


 soft charge-density along one line, spin component           1
         0         1         2         3         4         5         6         7         8         9
 total charge-density along one line
 
 pseudopotential strength for first ion, spin component:           1
 18.598  -0.001   0.000   0.000   0.000   0.000   0.000   0.000
 -0.001   0.006   0.000   0.000   0.000   0.000   0.000   0.000
  0.000   0.000   4.224   0.000   0.000  -0.005   0.000   0.000
  0.000   0.000   0.000   4.224   0.000   0.000  -0.005   0.000
  0.000   0.000   0.000   0.000   4.224   0.000   0.000  -0.005
  0.000   0.000  -0.005   0.000   0.000   0.005   0.000   0.000
  0.000   0.000   0.000  -0.005   0.000   0.000   0.005   0.000
  0.000   0.000   0.000   0.000  -0.005   0.000   0.000   0.005
 total augmentation occupancy for first ion, spin component:           1
  1.320  -1.087  -0.002   0.002  -0.002   0.002  -0.003   0.003
 -1.087   1.012  -0.001  -0.001   0.001  -0.001   0.003  -0.002
 -0.002  -0.001   1.123  -0.001   0.002  -0.800   0.001  -0.002
  0.002  -0.001  -0.001   1.122  -0.001   0.001  -0.799   0.001
 -0.002   0.001   0.002  -0.001   1.124  -0.002   0.001  -0.801
  0.002  -0.001  -0.800   0.001  -0.002   0.647  -0.001   0.002
 -0.003   0.003   0.001  -0.799   0.001  -0.001   0.646  -0.001
  0.003  -0.002  -0.002   0.001  -0.801   0.002  -0.001   0.647


----------------------------------------- Iteration    1(  10)  ---------------------------------------


    POTLOK:  cpu time    0.02: real time    0.02
    SETDIJ:  cpu time    0.02: real time    0.02
    EDDIAG:  cpu time    0.02: real time    0.02
  RMM-DIIS:  cpu time    0.03: real time    0.03
    ORTHCH:  cpu time    0.01: real time    0.01
       DOS:  cpu time    0.00: real time    0.00
    CHARGE:  cpu time    0.02: real time    0.02
    MIXING:  cpu time    0.00: real time    0.00
    --------------------------------------------
      LOOP:  cpu time    0.13: real time    0.13

 eigenvalue-minimisations  :   104
 total energy-change (2. order) :-0.1854524E-03  (-0.2322471E-04)
 number of electron      31.9999999 magnetization 
 augmentation part       -1.7273510 magnetization 

 Broyden mixing:
  rms(total) = 0.41559E-03    rms(broyden)= 0.41512E-03
  rms(prec ) = 0.85349E-03
  weight for this iteration     100.00

 eigenvalues of (default mixing * dielectric matrix)
  average eigenvalue GAMMA=   2.0375
  3.0854  2.6200  2.1601  0.9791  1.3428

 Free energy of the ion-electron system (eV)
  ---------------------------------------------------
  alpha Z        PSCENC =        12.68944982
  Ewald energy   TEWEN  =      -907.56678780
  -1/2 Hartree   DENC   =       -70.84580922
  -exchange  EXHF       =         0.00000000
  -V(xc)+E(xc)   XCENC  =       -72.90952328
  PAW double counting   =       307.79916264     -166.64279858
  entropy T*S    EENTRO =         0.00000000
  eigenvalues    EBANDS =        37.87732159
  atomic energy  EATOM  =       826.37398168
  ---------------------------------------------------
  free energy    TOTEN  =       -33.22500316 eV

  energy without entropy =      -33.22500316  energy(sigma->0) =      -33.22500316


--------------------------------------------------------------------------------------------------------




 average (electrostatic) potential at core
  the test charge radii are     0.9892
  (the norm of the test charge is              1.0000)
       1 -83.2256       2 -83.2245       3 -83.2274       4 -83.2286       5 -83.2261
       6 -83.2238       7 -83.2245       8 -83.2266
 
 
 
 E-fermi :   6.0532     XC(G=0):  -9.1309     alpha+bet :-11.7379


 k-point   1 :       0.0000    0.0000    0.0000
  band No.  band energies     occupation 
      1      -5.9496      2.00000
      2      -1.8764      2.00000
      3      -1.8714      2.00000
      4      -1.8666      2.00000
      5      -1.8638      2.00000
      6      -1.8570      2.00000
      7      -1.8516      2.00000
      8       3.0456      2.00000
      9       3.0493      2.00000
     10       3.0495      2.00000
     11       3.0520      2.00000
     12       3.0533      2.00000
     13       3.0576      2.00000
     14       5.9193      2.00000
     15       5.9215      2.00000
     16       5.9270      2.00000
     17       6.5866      0.00000
     18       6.5926      0.00000
     19       6.5937      0.00000
     20       6.5966      0.00000
     21       6.6009      0.00000
     22       6.6060      0.00000
     23       8.3772      0.00000
     24       8.3806      0.00000
     25       8.3819      0.00000
     26       9.0561      0.00000
     27      13.6116      0.00000
     28      13.6117      0.00000
     29      13.8260      0.00000
     30      15.8187      0.00000
     31      15.8237      0.00000
     32      15.8280      0.00000
     33      15.8304      0.00000
     34      15.8329      0.00000
     35      15.8370      0.00000
     36      16.9508      0.00000
     37      16.9538      0.00000
     38      16.9553      0.00000
     39      16.9727      0.00000
     40      16.9827      0.00000
     41      16.9829      0.00000
     42      16.9887      0.00000
     43      16.9915      0.00000
     44      17.0028      0.00000
     45      18.7139      0.00000
     46      18.7246      0.00000
     47      18.7323      0.00000
     48      18.7348      0.00000


--------------------------------------------------------------------------------------------------------


 soft charge-density along one line, spin component           1
         0         1         2         3         4         5         6         7         8         9
 total charge-density along one line
 
 pseudopotential strength for first ion, spin component:           1
 18.597  -0.001   0.000   0.000   0.000   0.000   0.000   0.000
 -0.001   0.006   0.000   0.000   0.000   0.000   0.000   0.000
  0.000   0.000   4.224   0.000   0.000  -0.005   0.000   0.000
  0.000   0.000   0.000   4.224   0.000   0.000  -0.005   0.000
  0.000   0.000   0.000   0.000   4.224   0.000   0.000  -0.005
  0.000   0.000  -0.005   0.000   0.000   0.005   0.000   0.000
  0.000   0.000   0.000  -0.005   0.000   0.000   0.005   0.000
  0.000   0.000   0.000   0.000  -0.005   0.000   0.000   0.005
 total augmentation occupancy for first ion, spin component:           1
  1.320  -1.086  -0.002   0.002  -0.002   0.002  -0.003   0.003
 -1.086   1.012  -0.001  -0.001   0.001  -0.001   0.003  -0.002
 -0.002  -0.001   1.123  -0.001   0.002  -0.801   0.001  -0.002
  0.002  -0.001  -0.001   1.121  -0.001   0.001  -0.800   0.001
 -0.002   0.001   0.002  -0.001   1.124  -0.002   0.001  -0.802
  0.002  -0.001  -0.801   0.001  -0.002   0.647  -0.001   0.002
 -0.003   0.003   0.001  -0.800   0.001  -0.001   0.647  -0.001
  0.003  -0.002  -0.002   0.001  -0.802   0.002  -0.001   0.648


----------------------------------------- Iteration    1(  11)  ---------------------------------------


    POTLOK:  cpu time    0.02: real time    0.02
    SETDIJ:  cpu time    0.02: real time    0.02
    EDDIAG:  cpu time    0.03: real time    0.03
  RMM-DIIS:  cpu time    0.05: real time    0.05
    ORTHCH:  cpu time    0.01: real time    0.01
       DOS:  cpu time    0.00: real time    0.00
    CHARGE:  cpu time    0.02: real time    0.02
    MIXING:  cpu time    0.00: real time    0.00
    --------------------------------------------
      LOOP:  cpu time    0.15: real time    0.15

 eigenvalue-minimisations  :   115
 total energy-change (2. order) : 0.4414727E-05  (-0.2827170E-06)
 number of electron      31.9999999 magnetization 
 augmentation part       -1.7274433 magnetization 

 Broyden mixing:
  rms(total) = 0.16592E-03    rms(broyden)= 0.16587E-03
  rms(prec ) = 0.32691E-03
  weight for this iteration     100.00

 eigenvalues of (default mixing * dielectric matrix)
  average eigenvalue GAMMA=   1.9627
  3.2059  2.7003  2.1685  1.7395  0.9810  0.9810

 Free energy of the ion-electron system (eV)
  ---------------------------------------------------
  alpha Z        PSCENC =        12.68944982
  Ewald energy   TEWEN  =      -907.56678780
  -1/2 Hartree   DENC   =       -70.82756359
  -exchange  EXHF       =         0.00000000
  -V(xc)+E(xc)   XCENC  =       -72.91094082
  PAW double counting   =       307.73247297     -166.57357244
  entropy T*S    EENTRO =         0.00000000
  eigenvalues    EBANDS =        37.85796143
  atomic energy  EATOM  =       826.37398168
  ---------------------------------------------------
  free energy    TOTEN  =       -33.22499875 eV

  energy without entropy =      -33.22499875  energy(sigma->0) =      -33.22499875


--------------------------------------------------------------------------------------------------------




 average (electrostatic) potential at core
  the test charge radii are     0.9892
  (the norm of the test charge is              1.0000)
       1 -83.2275       2 -83.2261       3 -83.2297       4 -83.2311       5 -83.2280
       6 -83.2253       7 -83.2262       8 -83.2287
 
 
 
 E-fermi :   6.0528     XC(G=0):  -9.1314     alpha+bet :-11.7379


 k-point   1 :       0.0000    0.0000    0.0000
  band No.  band energies     occupation 
      1      -5.9502      2.00000
      2      -1.8772      2.00000
      3      -1.8722      2.00000
      4      -1.8673      2.00000
      5      -1.8644      2.00000
      6      -1.8575      2.00000
      7      -1.8520      2.00000
      8       3.0450      2.00000
      9       3.0487      2.00000
     10       3.0489      2.00000
     11       3.0515      2.00000
     12       3.0527      2.00000
     13       3.0571      2.00000
     14       5.9186      2.00000
     15       5.9208      2.00000
     16       5.9264      2.00000
     17       6.5861      0.00000
     18       6.5920      0.00000
     19       6.5931      0.00000
     20       6.5960      0.00000
     21       6.6003      0.00000
     22       6.6054      0.00000
     23       8.3768      0.00000
     24       8.3802      0.00000
     25       8.3815      0.00000
     26       9.0553      0.00000
     27      13.6114      0.00000
     28      13.6114      0.00000
     29      13.8248      0.00000
     30      15.8181      0.00000
     31      15.8230      0.00000
     32      15.8273      0.00000
     33      15.8298      0.00000
     34      15.8323      0.00000
     35      15.8364      0.00000
     36      16.9504      0.00000
     37      16.9534      0.00000
     38      16.9549      0.00000
     39      16.9721      0.00000
     40      16.9821      0.00000
     41      16.9823      0.00000
     42      16.9882      0.00000
     43      16.9910      0.00000
     44      17.0023      0.00000
     45      18.7158      0.00000
     46      18.7259      0.00000
     47      18.7321      0.00000
     48      18.7345      0.00000


--------------------------------------------------------------------------------------------------------


 soft charge-density along one line, spin component           1
         0         1         2         3         4         5         6         7         8         9
 total charge-density along one line
 
 pseudopotential strength for first ion, spin component:           1
 18.597  -0.001   0.000   0.000   0.000   0.000   0.000   0.000
 -0.001   0.006   0.000   0.000   0.000   0.000   0.000   0.000
  0.000   0.000   4.224   0.000   0.000  -0.005   0.000   0.000
  0.000   0.000   0.000   4.224   0.000   0.000  -0.005   0.000
  0.000   0.000   0.000   0.000   4.224   0.000   0.000  -0.005
  0.000   0.000  -0.005   0.000   0.000   0.005   0.000   0.000
  0.000   0.000   0.000  -0.005   0.000   0.000   0.005   0.000
  0.000   0.000   0.000   0.000  -0.005   0.000   0.000   0.005
 total augmentation occupancy for first ion, spin component:           1
  1.320  -1.086  -0.002   0.002  -0.002   0.002  -0.003   0.003
 -1.086   1.011  -0.001  -0.001   0.001  -0.001   0.003  -0.002
 -0.002  -0.001   1.123  -0.001   0.002  -0.801   0.001  -0.002
  0.002  -0.001  -0.001   1.121  -0.001   0.001  -0.800   0.001
 -0.002   0.001   0.002  -0.001   1.124  -0.002   0.001  -0.802
  0.002  -0.001  -0.801   0.001  -0.002   0.647  -0.001   0.002
 -0.003   0.003   0.001  -0.800   0.001  -0.001   0.647  -0.001
  0.003  -0.002  -0.002   0.001  -0.802   0.002  -0.001   0.648


----------------------------------------- Iteration    1(  12)  ---------------------------------------


    POTLOK:  cpu time    0.02: real time    0.02
    SETDIJ:  cpu time    0.02: real time    0.02
    EDDIAG:  cpu time    0.02: real time    0.02
  RMM-DIIS:  cpu time    0.03: real time    0.03
    ORTHCH:  cpu time    0.01: real time    0.01
       DOS:  cpu time    0.00: real time    0.00
    CHARGE:  cpu time    0.02: real time    0.02
    MIXING:  cpu time    0.00: real time    0.00
    --------------------------------------------
      LOOP:  cpu time    0.12: real time    0.13

 eigenvalue-minimisations  :   126
 total energy-change (2. order) :-0.7738594E-06  (-0.6478568E-07)
 number of electron      31.9999999 magnetization 
 augmentation part       -1.7274287 magnetization 

 Broyden mixing:
  rms(total) = 0.61417E-04    rms(broyden)= 0.61381E-04
  rms(prec ) = 0.87330E-04
  weight for this iteration     100.00

 eigenvalues of (default mixing * dielectric matrix)
  average eigenvalue GAMMA=   2.0008
  3.2153  2.7371  2.4607  2.0701  1.5616  0.9987  0.9623

 Free energy of the ion-electron system (eV)
  ---------------------------------------------------
  alpha Z        PSCENC =        12.68944982
  Ewald energy   TEWEN  =      -907.56678780
  -1/2 Hartree   DENC   =       -70.83235164
  -exchange  EXHF       =         0.00000000
  -V(xc)+E(xc)   XCENC  =       -72.91085740
  PAW double counting   =       307.74143926     -166.58279659
  entropy T*S    EENTRO =         0.00000000
  eigenvalues    EBANDS =        37.86292315
  atomic energy  EATOM  =       826.37398168
  ---------------------------------------------------
  free energy    TOTEN  =       -33.22499952 eV

  energy without entropy =      -33.22499952  energy(sigma->0) =      -33.22499952


--------------------------------------------------------------------------------------------------------




 average (electrostatic) potential at core
  the test charge radii are     0.9892
  (the norm of the test charge is              1.0000)
       1 -83.2269       2 -83.2255       3 -83.2292       4 -83.2306       5 -83.2275
       6 -83.2247       7 -83.2256       8 -83.2282
 
 
 
 E-fermi :   6.0535     XC(G=0):  -9.1311     alpha+bet :-11.7379


 k-point   1 :       0.0000    0.0000    0.0000
  band No.  band energies     occupation 
      1      -5.9500      2.00000
      2      -1.8771      2.00000
      3      -1.8720      2.00000
      4      -1.8671      2.00000
      5      -1.8642      2.00000
      6      -1.8574      2.00000
      7      -1.8518      2.00000
      8       3.0451      2.00000
      9       3.0489      2.00000
     10       3.0491      2.00000
     11       3.0516      2.00000
     12       3.0529      2.00000
[...]
    LRDIIS:  cpu time    0.02: real time    0.02
    LRDIAG:  cpu time    0.01: real time    0.01
    MIXING:  cpu time    0.00: real time    0.00
    --------------------------------------------
      LOOP:  cpu time    0.16: real time    0.16

 Broyden mixing:
  rms(total) = 0.14233E-01    rms(broyden)= 0.14231E-01
  rms(prec ) = 0.24740E-01
  weight for this iteration     100.00

 eigenvalues of (default mixing * dielectric matrix)
  average eigenvalue GAMMA=   1.8929
  2.5400  1.2718  1.8669

 Free energy of the ion-electron system (eV)
  ---------------------------------------------------
  -1/2 Hartree   DENC   =        -4.56991789
  -V(xc)+E(xc)   XCENC  =         0.93385320
  PAW double counting   =         3.09791254       -3.14718622
  entropy T*S    EENTRO =         0.00000000
  eigenvalues    EBANDS =       -24.49071670
  ---------------------------------------------------
  free energy    TOTEN  =       -28.17605508 eV

  energy without entropy =      -28.17605508


----------------------------------------- Iteration    3(   6)  ---------------------------------------


   POT+DIJ:  cpu time    0.08: real time    0.08
    HAMIL1:  cpu time    0.00: real time    0.01
    LRDIAG:  cpu time    0.01: real time    0.01
    LRDIIS:  cpu time    0.02: real time    0.02
    LRDIAG:  cpu time    0.01: real time    0.01
    MIXING:  cpu time    0.00: real time    0.00
    --------------------------------------------
      LOOP:  cpu time    0.16: real time    0.16

 Broyden mixing:
  rms(total) = 0.72044E-02    rms(broyden)= 0.72040E-02
  rms(prec ) = 0.12380E-01
  weight for this iteration     100.00

 eigenvalues of (default mixing * dielectric matrix)
  average eigenvalue GAMMA=   2.0713
  3.0310  2.4799  1.1211  1.6531

 Free energy of the ion-electron system (eV)
  ---------------------------------------------------
  -1/2 Hartree   DENC   =        -4.61480875
  -V(xc)+E(xc)   XCENC  =         0.94946590
  PAW double counting   =         3.10263551       -3.15203562
  entropy T*S    EENTRO =         0.00000000
  eigenvalues    EBANDS =       -24.52639467
  ---------------------------------------------------
  free energy    TOTEN  =       -28.24113762 eV

  energy without entropy =      -28.24113762


----------------------------------------- Iteration    3(   7)  ---------------------------------------


   POT+DIJ:  cpu time    0.08: real time    0.08
    HAMIL1:  cpu time    0.00: real time    0.01
    LRDIAG:  cpu time    0.01: real time    0.01
    LRDIIS:  cpu time    0.02: real time    0.02
    LRDIAG:  cpu time    0.01: real time    0.01
    MIXING:  cpu time    0.00: real time    0.00
    --------------------------------------------
      LOOP:  cpu time    0.16: real time    0.16

 Broyden mixing:
  rms(total) = 0.52974E-03    rms(broyden)= 0.52889E-03
  rms(prec ) = 0.10099E-02
  weight for this iteration     100.00

 eigenvalues of (default mixing * dielectric matrix)
  average eigenvalue GAMMA=   1.9622
  3.0916  2.4148  1.1133  1.6781  1.5131

 Free energy of the ion-electron system (eV)
  ---------------------------------------------------
  -1/2 Hartree   DENC   =        -4.62775217
  -V(xc)+E(xc)   XCENC  =         0.95751009
  PAW double counting   =         3.06557297       -3.11441807
  entropy T*S    EENTRO =         0.00000000
  eigenvalues    EBANDS =       -24.56330192
  ---------------------------------------------------
  free energy    TOTEN  =       -28.28238910 eV

  energy without entropy =      -28.28238910


----------------------------------------- Iteration    3(   8)  ---------------------------------------


   POT+DIJ:  cpu time    0.08: real time    0.08
    HAMIL1:  cpu time    0.00: real time    0.01
    LRDIAG:  cpu time    0.01: real time    0.01
    LRDIIS:  cpu time    0.02: real time    0.02
    LRDIAG:  cpu time    0.01: real time    0.01
    MIXING:  cpu time    0.01: real time    0.01
    --------------------------------------------
      LOOP:  cpu time    0.17: real time    0.18

 Broyden mixing:
  rms(total) = 0.27617E-03    rms(broyden)= 0.27610E-03
  rms(prec ) = 0.40865E-03
  weight for this iteration     100.00

 eigenvalues of (default mixing * dielectric matrix)
  average eigenvalue GAMMA=   1.9061
  3.0880  2.4644  2.0469  1.6600  1.1299  1.0473

 Free energy of the ion-electron system (eV)
  ---------------------------------------------------
  -1/2 Hartree   DENC   =        -4.63094996
  -V(xc)+E(xc)   XCENC  =         0.95836159
  PAW double counting   =         3.06905791       -3.11796159
  entropy T*S    EENTRO =         0.00000000
  eigenvalues    EBANDS =       -24.56436056
  ---------------------------------------------------
  free energy    TOTEN  =       -28.28585261 eV

  energy without entropy =      -28.28585261


----------------------------------------- Iteration    3(   9)  ---------------------------------------


   POT+DIJ:  cpu time    0.13: real time    0.13
    HAMIL1:  cpu time    0.02: real time    0.02
    LRDIAG:  cpu time    0.01: real time    0.01
    LRDIIS:  cpu time    0.03: real time    0.03
    LRDIAG:  cpu time    0.01: real time    0.01
    MIXING:  cpu time    0.00: real time    0.00
    --------------------------------------------
      LOOP:  cpu time    0.23: real time    0.23

 Broyden mixing:
  rms(total) = 0.10460E-03    rms(broyden)= 0.10458E-03
  rms(prec ) = 0.15847E-03
  weight for this iteration     100.00

 eigenvalues of (default mixing * dielectric matrix)
  average eigenvalue GAMMA=   1.8920
  3.1736  2.7223  2.4050  1.6746  1.2701  1.1001  0.8985

 Free energy of the ion-electron system (eV)
  ---------------------------------------------------
  -1/2 Hartree   DENC   =        -4.63064832
  -V(xc)+E(xc)   XCENC  =         0.95830106
  PAW double counting   =         3.07115464       -3.12009456
  entropy T*S    EENTRO =         0.00000000
  eigenvalues    EBANDS =       -24.56461299
  ---------------------------------------------------
  free energy    TOTEN  =       -28.28590017 eV

  energy without entropy =      -28.28590017


----------------------------------------- Iteration    3(  10)  ---------------------------------------


   POT+DIJ:  cpu time    0.09: real time    0.09
    HAMIL1:  cpu time    0.01: real time    0.01
    LRDIAG:  cpu time    0.01: real time    0.02
    LRDIIS:  cpu time    0.03: real time    0.03
    LRDIAG:  cpu time    0.01: real time    0.01
    MIXING:  cpu time    0.00: real time    0.00
    --------------------------------------------
      LOOP:  cpu time    0.17: real time    0.18

 Broyden mixing:
  rms(total) = 0.15965E-04    rms(broyden)= 0.15956E-04
  rms(prec ) = 0.25432E-04
  weight for this iteration     100.00

 eigenvalues of (default mixing * dielectric matrix)
  average eigenvalue GAMMA=   1.8308
  3.1940  2.7690  2.4449  1.6701  1.4108  0.9930  1.0477  1.1171

 Free energy of the ion-electron system (eV)
  ---------------------------------------------------
  -1/2 Hartree   DENC   =        -4.63073607
  -V(xc)+E(xc)   XCENC  =         0.95834531
  PAW double counting   =         3.07229113       -3.12125085
  entropy T*S    EENTRO =         0.00000000
  eigenvalues    EBANDS =       -24.56487384
  ---------------------------------------------------
  free energy    TOTEN  =       -28.28622432 eV

  energy without entropy =      -28.28622432


----------------------------------------- Iteration    3(  11)  ---------------------------------------


   POT+DIJ:  cpu time    0.09: real time    0.09
    HAMIL1:  cpu time    0.01: real time    0.01
    LRDIAG:  cpu time    0.02: real time    0.02
    LRDIIS:  cpu time    0.03: real time    0.03
    LRDIAG:  cpu time    0.01: real time    0.01
    MIXING:  cpu time    0.00: real time    0.00
    --------------------------------------------
      LOOP:  cpu time    0.17: real time    0.18

 Broyden mixing:
  rms(total) = 0.38063E-05    rms(broyden)= 0.38040E-05
  rms(prec ) = 0.52741E-05
  weight for this iteration     100.00

 eigenvalues of (default mixing * dielectric matrix)
  average eigenvalue GAMMA=   1.8951
  3.2028  2.8073  2.4230  2.4230  1.6714  1.4128  1.1108  1.0023  1.0023

 Free energy of the ion-electron system (eV)
  ---------------------------------------------------
  -1/2 Hartree   DENC   =        -4.63073776
  -V(xc)+E(xc)   XCENC  =         0.95834055
  PAW double counting   =         3.07239641       -3.12135792
  entropy T*S    EENTRO =         0.00000000
  eigenvalues    EBANDS =       -24.56485531
  ---------------------------------------------------
  free energy    TOTEN  =       -28.28621403 eV

  energy without entropy =      -28.28621403


----------------------------------------- Iteration    3(  12)  ---------------------------------------


   POT+DIJ:  cpu time    0.08: real time    0.08
    HAMIL1:  cpu time    0.00: real time    0.01
    LRDIAG:  cpu time    0.01: real time    0.01
    LRDIIS:  cpu time    0.03: real time    0.03
    LRDIAG:  cpu time    0.01: real time    0.01
    MIXING:  cpu time    0.00: real time    0.00
    --------------------------------------------
      LOOP:  cpu time    0.17: real time    0.17

 Broyden mixing:
  rms(total) = 0.94719E-06    rms(broyden)= 0.94675E-06
  rms(prec ) = 0.14660E-05
  weight for this iteration     100.00

 eigenvalues of (default mixing * dielectric matrix)
  average eigenvalue GAMMA=   1.8383
  3.2046  2.8083  2.5359  2.4431  1.6699  1.3012  1.3012  1.1108  1.0042  1.0042

 Free energy of the ion-electron system (eV)
  ---------------------------------------------------
  -1/2 Hartree   DENC   =        -4.63073775
  -V(xc)+E(xc)   XCENC  =         0.95834023
  PAW double counting   =         3.07231213       -3.12127219
  entropy T*S    EENTRO =         0.00000000
  eigenvalues    EBANDS =       -24.56485649
  ---------------------------------------------------
  free energy    TOTEN  =       -28.28621406 eV

  energy without entropy =      -28.28621406


------------------------ aborting loop because EDIFF is reached ----------------------------------------


 change of polarisation eV/A/(eV/A) component  3 :     0.010    -0.063    50.532
 dielectric tensor                  component  3 :     0.011    -0.070    56.869


--------------------------------------------------------------------------------------------------------


    FORLOC:  cpu time    0.00: real time    0.00
    FORNL :  cpu time    0.10: real time    0.10
    STRESS:  cpu time    0.32: real time    0.32
    FORCOR:  cpu time    0.02: real time    0.02
    FORLOC:  cpu time    0.00: real time    0.00
    FORNL :  cpu time    0.10: real time    0.10
    STRESS:  cpu time    0.32: real time    0.32
    FORCOR:  cpu time    0.02: real time    0.02
    FORNLD:  cpu time    0.03: real time    0.04

 PIEZOELECTRIC TENSOR FIELD DIRECTION 3  (e Angst)
 -----------------------------------------------------------------------------
    -0.00796  0.00415  0.00743           (  0.00001 -0.00005  0.00001)
     0.00415  0.02004 -0.00716           ( -0.00005 -0.00001 -0.00001)
     0.00743 -0.00716  0.00083           (  0.00001 -0.00001 -0.00001)

 PIEZOELECTRIC TENSOR FIELD DIRECTION 3  (C/m^2)
 -----------------------------------------------------------------------------
    -0.00078  0.00041  0.00073
     0.00041  0.00196 -0.00070
     0.00073 -0.00070  0.00008


      POSITION         DIRECTION 3           BORN EFFECTIVE CHARGE    (rigid.aug.   ionic)
 -----------------------------------------------------------------------------------------
      0.00134      0.00003      0.00174    -0.03818  0.13913 -5.77129 (  0.21593  4.00000)
      1.36753      1.36924      1.36981    -0.03052 -0.13520 -5.79565 (  0.21591  4.00000)
      2.73674      2.73731      0.00160     0.04960 -0.15862 -5.73252 (  0.21594  4.00000)
      4.10481      4.10410      1.36434    -0.03120  0.12116 -5.71036 (  0.21596  4.00000)
      2.73660      5.46684      2.73514     0.02906  0.16429 -5.78052 (  0.21593  4.00000)
      4.09934      1.36764      4.10586     0.03529 -0.11717 -5.83354 (  0.21591  4.00000)
      0.00014      2.73836      2.73489    -0.05685 -0.13385 -5.81418 (  0.21591  4.00000)
      1.37086      4.10239      4.10129     0.03305  0.13605 -5.77446 (  0.21594  4.00000)
 -----------------------------------------------------------------------------------------
    total drift (improves with k-points):  -0.00974  0.01580-46.21252




--------------------------------------------------------------------------------------------------------


  LATTYP: Found a simple cubic cell.
 ALAT       =     5.4700000000
  
  Lattice vectors:
  
 A1 = (   5.4700000000,   0.0000000000,   0.0000000000)
 A2 = (   0.0000000000,   5.4700000000,   0.0000000000)
 A3 = (   0.0000000000,   0.0000000000,   5.4700000000)


Analysis of symmetry for initial positions (statically):
=====================================================================
 Subroutine PRICEL returns:
 Original cell was already a primitive cell.
 

 Routine SETGRP: Setting up the symmetry group for a 
 simple cubic supercell.


 Subroutine GETGRP returns: Found  1 space group operations
 (whereof  1 operations were pure point group operations)
 out of a pool of 48 trial point group operations.


The static configuration has the point symmetry C_1 .


Analysis of symmetry for dynamics (positions and initial velocities):
=====================================================================
 Subroutine PRICEL returns:
 Original cell was already a primitive cell.
 

 Routine SETGRP: Setting up the symmetry group for a 
 simple cubic supercell.


 Subroutine GETGRP returns: Found  1 space group operations
 (whereof  1 operations were pure point group operations)
 out of a pool of 48 trial point group operations.


The dynamic configuration has the point symmetry C_1 .


 MACROSCOPIC STATIC DIELECTRIC TENSOR (including local field effects in DFT)
 ------------------------------------------------------
          56.865146    -0.077932     0.010782
          -0.077930    56.866683    -0.069853
           0.010781    -0.069855    56.868844
 ------------------------------------------------------



--------------------------------------------------------------------------------------------------------


  LATTYP: Found a simple cubic cell.
 ALAT       =     5.4700000000
  
  Lattice vectors:
  
 A1 = (   5.4700000000,   0.0000000000,   0.0000000000)
 A2 = (   0.0000000000,   5.4700000000,   0.0000000000)
 A3 = (   0.0000000000,   0.0000000000,   5.4700000000)


Analysis of symmetry for initial positions (statically):
=====================================================================
 Subroutine PRICEL returns:
 Original cell was already a primitive cell.
 

 Routine SETGRP: Setting up the symmetry group for a 
 simple cubic supercell.


 Subroutine GETGRP returns: Found  1 space group operations
 (whereof  1 operations were pure point group operations)
 out of a pool of 48 trial point group operations.


The static configuration has the point symmetry C_1 .


Analysis of symmetry for dynamics (positions and initial velocities):
=====================================================================
 Subroutine PRICEL returns:
 Original cell was already a primitive cell.
 

 Routine SETGRP: Setting up the symmetry group for a 
 simple cubic supercell.


 Subroutine GETGRP returns: Found  1 space group operations
 (whereof  1 operations were pure point group operations)
 out of a pool of 48 trial point group operations.


The dynamic configuration has the point symmetry C_1 .
 
 KPOINTS: Automatic mesh                          

Automatic generation of k-mesh.
Space group operators:
 irot       det(A)        alpha          n_x          n_y          n_z        tau_x        tau_y        tau_z
    1     1.000000     0.000001     1.000000     0.000000     0.000000     0.000000     0.000000     0.000000
 
 Subroutine IBZKPT returns following result:
 ===========================================
 
 Found      1 irreducible k-points:
 
 Following reciprocal coordinates:
            Coordinates               Weight
  0.000000  0.000000  0.000000      1.000000
 
 Following cartesian coordinates:
            Coordinates               Weight
  0.000000  0.000000  0.000000      1.000000
 


--------------------------------------------------------------------------------------------------------




 MACROSCOPIC STATIC DIELECTRIC TENSOR (including local field effects in DFT)
 ------------------------------------------------------
          56.865146    -0.077932     0.010782
          -0.077930    56.866683    -0.069853
           0.010781    -0.069855    56.868844
 ------------------------------------------------------


 PIEZOELECTRIC TENSOR  for field in x, y, z        (e  Angst)
          XX          YY          ZZ          XY          YZ          ZX
  --------------------------------------------------------------------------------
  x     0.00088    -0.01816     0.00591    -0.00466     0.00492    -0.00691
  y    -0.00017    -0.01699    -0.00936    -0.00214     0.00255    -0.00906
  z    -0.00796     0.02004     0.00083     0.00415    -0.00716     0.00743

 PIEZOELECTRIC TENSOR  for field in x, y, z        (C/m^2)
          XX          YY          ZZ          XY          YZ          ZX
  --------------------------------------------------------------------------------
  x     0.00009    -0.00178     0.00058    -0.00046     0.00048    -0.00068
  y    -0.00002    -0.00166    -0.00092    -0.00021     0.00025    -0.00089
  z    -0.00078     0.00196     0.00008     0.00041    -0.00070     0.00073
 
 BORN EFFECTIVE CHARGES (in e, cummulative output)
 -------------------------------------------------
 ion    1
    1    -5.79412    -0.14660     0.04897
    2     0.08791    -5.78118    -0.04065
    3    -0.03818     0.13913    -5.77129
 ion    2
    1    -5.81320     0.15140     0.02246
    2    -0.17613    -5.83777     0.11534
    3    -0.03052    -0.13520    -5.79565
 ion    3
    1    -5.72976     0.15258    -0.04587
    2    -0.07737    -5.73925     0.11236
    3     0.04960    -0.15862    -5.73252
 ion    4
    1    -5.71330    -0.14382     0.02630
    2     0.17915    -5.69111    -0.11866
    3    -0.03120     0.12116    -5.71036
 ion    5
    1    -5.75852    -0.14547    -0.05719
    2     0.08532    -5.77411    -0.11143
    3     0.02906     0.16429    -5.78052
 ion    6
    1    -5.81585     0.09556    -0.02040
    2    -0.06799    -5.85162     0.12727
    3     0.03529    -0.11717    -5.83354
 ion    7
    1    -5.81694     0.14606     0.04049
    2    -0.07959    -5.80215     0.04085
    3    -0.05685    -0.13385    -5.81418
 ion    8
    1    -5.76992    -0.09193    -0.02439
    2     0.06623    -5.73403    -0.10944
    3     0.03305     0.13605    -5.77446


--------------------------------------------------------------------------------------------------------


     LOOP+:  cpu time   20.77: real time   21.18
    4ORBIT:  cpu time    0.00: real time    0.00

 total amount of memory used by VASP on root node    32224. kBytes
========================================================================

   base      :      30000. kBytes
   nonl-proj :        202. kBytes
   fftplans  :        782. kBytes
   grid      :       1198. kBytes
   one-center:         24. kBytes
   wavefun   :         18. kBytes
 
  
  
 General timing and accounting informations for this job:
 ========================================================
  
                  Total CPU time used (sec):       22.051
                            User time (sec):       17.699
                          System time (sec):        4.351
                         Elapsed time (sec):       24.126
  
                   Maximum memory used (kb):       57664.
                   Average memory used (kb):           0.
  
                          Minor page faults:       199221
                          Major page faults:            0
                 Voluntary context switches:         1476
