 vasp.5.3.3 18Dez12 (build Jan  9 2014 12:00:49) complex                        
  
 executed on             LinuxIFC date 2014.01.29  10:12:49
 running on   48 total cores
 distrk:  each k-point on   48 cores,    1 groups
 distr:  one band on NCORES_PER_BAND=   1 cores,   48 groups


--------------------------------------------------------------------------------------------------------


 INCAR:
 POTCAR:    PAW Si                                

 ----------------------------------------------------------------------------- 
|                                                                             |
|           W    W    AA    RRRRR   N    N  II  N    N   GGGG   !!!           |
|           W    W   A  A   R    R  NN   N  II  NN   N  G    G  !!!           |
|           W    W  A    A  R    R  N N  N  II  N N  N  G       !!!           |
|           W WW W  AAAAAA  RRRRR   N  N N  II  N  N N  G  GGG   !            |
|           WW  WW  A    A  R   R   N   NN  II  N   NN  G    G                |
|           W    W  A    A  R    R  N    N  II  N    N   GGGG   !!!           |
|                                                                             |
|      For optimal performance we recommend that you set                      |
|        NPAR = 4 - approx SQRT( number of cores)                             |
|      (number of cores/NPAR must be integer)                                 |
|      This setting will greatly improve the performance of VASP for DFT.     |
|      The default NPAR=number of cores might be grossly inefficient          |
|      on modern multi-core architectures or massively parallel machines.     |
|      Do your own testing.                                                   |
|      Unfortunately you need to use the default for hybrid, GW and RPA       |
|      calculations.                                                          |
|                                                                             |
 ----------------------------------------------------------------------------- 

 POTCAR:    PAW Si                                
   VRHFIN =Si: s2p2                                                             
   LEXCH  = 91                                                                  
   EATOM  =   103.3076 eV,    7.5929 Ry                                         
                                                                                
   TITEL  = PAW Si                                                              
   LULTRA =        F    use ultrasoft PP ?                                      
   IUNSCR =        1    unscreen: 0-lin 1-nonlin 2-no                           
   RPACOR =    1.500    partial core radius                                     
   POMASS =   28.085; ZVAL   =    4.000    mass and valenz                      
   RCORE  =    1.900    outmost cutoff radius                                   
   RWIGS  =    2.480; RWIGS  =    1.312    wigner-seitz radius (au A)           
   ENMAX  =  245.435; ENMIN  =  184.076 eV                                      
   ICORE  =        2    local potential                                         
   LCOR   =        T    correct aug charges                                     
   LPAW   =        T    paw PP                                                  
   EAUG   =  322.069                                                            
   DEXC   =    -.001                                                            
   RMAX   =    2.943    core radius for proj-oper                               
   RAUG   =    1.300    factor for augmentation sphere                          
   RDEP   =    1.993    core radius for depl-charge                             
   QCUT   =   -4.247; QGAM   =    8.494    optimization parameters              
                                                                                
   Description                                                                  
     l     E      TYP  RCUT    TYP  RCUT                                        
     0   .000     23  1.900                                                     
     0   .000     23  1.900                                                     
     1   .000     23  1.900                                                     
     1   .000     23  1.900                                                     
     2   .000      7  1.900                                                     
  local pseudopotential read in
  partial core-charges read in
  atomic valenz-charges read in
  non local Contribution for L=           0  read in
    real space projection operators read in
  non local Contribution for L=           0  read in
    real space projection operators read in
  non local Contribution for L=           1  read in
    real space projection operators read in
  non local Contribution for L=           1  read in
    real space projection operators read in
    PAW grid and wavefunctions read in
 
   number of l-projection  operators is LMAX  =           4
   number of lm-projection operators is LMMAX =           8
 
  PAW Si                                :
 energy of atom  1       EATOM= -103.3076
 kinetic energy error for atom=    0.0109 (will be added to EATOM!!)
 
 
 POSCAR: OUTCAR.0023.-1.out 1.0e-02              
  positions in cartesian coordinates
  No initial velocities read in
 exchange correlation table for  LEXCH =        7
   RHO(1)=    0.500       N(1)  =     2000
   RHO(2)=  100.500       N(2)  =     4000

 VTST: version 3.0c, (01/09/14)

 CHAIN: initializing optimizer
 
 OPT: Using VASP Dynamics algorithm
 CHAIN: Read ICHAIN            0
 
 POSCAR: OUTCAR.0023.-1.out 1.0e-02              
  positions in cartesian coordinates
  No initial velocities read in
 


--------------------------------------------------------------------------------------------------------


 ion  position               nearest neighbor table
   1  1.000  0.000  0.001-   4 2.37   6 2.37   2 2.37   8 2.37
   2  0.250  0.251  0.250-   3 2.36   1 2.37   7 2.37   5 2.37
   3  0.501  0.500  0.000-   2 2.36   4 2.37   6 2.37   8 2.37
   4  0.750  0.750  0.250-   5 2.36   1 2.37   3 2.37   7 2.37
   5  0.500  0.000  0.499-   4 2.36   6 2.37   2 2.37   8 2.37
   6  0.750  0.249  0.750-   5 2.37   1 2.37   7 2.37   3 2.37
   7  0.999  0.500  0.500-   6 2.37   4 2.37   8 2.37   2 2.37
   8  0.250  0.750  0.750-   1 2.37   7 2.37   5 2.37   3 2.37
 
  LATTYP: Found a simple cubic cell.
 ALAT       =     5.4700000000
  
  Lattice vectors:
  
 A1 = (   5.4700000000,   0.0000000000,   0.0000000000)
 A2 = (   0.0000000000,   5.4700000000,   0.0000000000)
 A3 = (   0.0000000000,   0.0000000000,   5.4700000000)


Analysis of symmetry for initial positions (statically):
=====================================================================
 Subroutine PRICEL returns:
 Original cell was already a primitive cell.
 

 Routine SETGRP: Setting up the symmetry group for a 
 simple cubic supercell.


 Subroutine GETGRP returns: Found  1 space group operations
 (whereof  1 operations were pure point group operations)
 out of a pool of 48 trial point group operations.


The static configuration has the point symmetry C_1 .


Analysis of symmetry for dynamics (positions and initial velocities):
=====================================================================
 Subroutine PRICEL returns:
 Original cell was already a primitive cell.
 

 Routine SETGRP: Setting up the symmetry group for a 
 simple cubic supercell.


 Subroutine GETGRP returns: Found  1 space group operations
 (whereof  1 operations were pure point group operations)
 out of a pool of 48 trial point group operations.


The dynamic configuration has the point symmetry C_1 .


 irot  :   1
 --------------------------------------------------------------------
 isymop:   1   0   0
           0   1   0
           0   0   1

 gtrans:     0.0000000     0.0000000     0.0000000

 ptrans:     0.0000000     0.0000000     0.0000000
 rotmap:
 (   1->   1)  (   2->   2)  (   3->   3)  (   4->   4)  (   5->   5) 
 (   6->   6)  (   7->   7)  (   8->   8) 
 
 
 KPOINTS: Automatic mesh                          

Automatic generation of k-mesh.
Space group operators:
 irot       det(A)        alpha          n_x          n_y          n_z        tau_x        tau_y        tau_z
    1     1.000000     0.000001     1.000000     0.000000     0.000000     0.000000     0.000000     0.000000
 
 Subroutine IBZKPT returns following result:
 ===========================================
 
 Found      1 irreducible k-points:
 
 Following reciprocal coordinates:
            Coordinates               Weight
  0.000000  0.000000  0.000000      1.000000
 
 Following cartesian coordinates:
            Coordinates               Weight
  0.000000  0.000000  0.000000      1.000000
 
 
 Subroutine IBZKPT_HF returns following result:
 ==============================================
 
 Found      1 k-points in 1st BZ
 the following      1 k-points will be used (e.g. in the exchange kernel)
 Following reciprocal coordinates:   # in IRBZ
  0.000000  0.000000  0.000000       1 t-inv F


--------------------------------------------------------------------------------------------------------




 Dimension of arrays:
   k-points           NKPTS =      1   k-points in BZ     NKDIM =      1   number of bands    NBANDS=     48
   number of dos      NEDOS =    301   number of ions     NIONS =      8
   non local maximal  LDIM  =      4   non local SUM 2l+1 LMDIM =      8
   total plane-waves  NPLWV =  21952
   max r-space proj   IRMAX =      1   max aug-charges    IRDMAX=  36071
   dimension x,y,z NGX =    28 NGY =   28 NGZ =   28
   dimension x,y,z NGXF=    56 NGYF=   56 NGZF=   56
   support grid    NGXF=   112 NGYF=  112 NGZF=  112
   ions per type =               8
 NGX,Y,Z   is equivalent  to a cutoff of   8.51,  8.51,  8.51 a.u.
 NGXF,Y,Z  is equivalent  to a cutoff of  17.02, 17.02, 17.02 a.u.


 I would recommend the setting:
   dimension x,y,z NGX =    19 NGY =   19 NGZ =   19
 SYSTEM =  NAPTHA04                                
 POSCAR =  OUTCAR.0023.-1.out 1.0e-02              

 Startparameter for this run:
   NWRITE =      3    write-flag & timer
   PREC   = normal    normal or accurate (medium, high low for compatibility)
   ISTART =      0    job   : 0-new  1-cont  2-samecut
   ICHARG =      2    charge: 1-file 2-atom 10-const
   ISPIN  =      1    spin polarized calculation?
   LNONCOLLINEAR =      F non collinear calculations
   LSORBIT =      F    spin-orbit coupling
   INIWAV =      1    electr: 0-lowe 1-rand  2-diag
   LASPH  =      F    aspherical Exc in radial PAW
   METAGGA=      F    non-selfconsistent MetaGGA calc.

 Electronic Relaxation 1
   ENCUT  =  200.0 eV  14.70 Ry    3.83 a.u.   6.31  6.31  6.31*2*pi/ulx,y,z
   ENINI  =  200.0     initial cutoff
   ENAUG  =  322.1 eV  augmentation charge cutoff
   NELM   =     60;   NELMIN=  2; NELMDL= -5     # of ELM steps 
   EDIFF  = 0.1E-07   stopping-criterion for ELM
   LREAL  =      F    real-space projection
   NLSPLINE    = F    spline interpolate recip. space projectors
   LCOMPAT=      F    compatible to vasp.4.4
   GGA_COMPAT  = T    GGA compatible to vasp.4.4-vasp.4.6
   LMAXPAW     = -100 max onsite density
   LMAXMIX     =    2 max onsite mixed and CHGCAR
   VOSKOWN=      0    Vosko Wilk Nusair interpolation
   ROPT   =    0.00000
 Ionic relaxation
   EDIFFG = 0.1E-06   stopping-criterion for IOM
   NSW    =      0    number of steps for IOM
   NBLOCK =      1;   KBLOCK =      1    inner block; outer block 
   IBRION =     -1    ionic relax: 0-MD 1-quasi-New 2-CG
   NFREE  =      0    steps in history (QN), initial steepest desc. (CG)
   ISIF   =      2    stress and relaxation
   IWAVPR =     10    prediction:  0-non 1-charg 2-wave 3-comb
   ISYM   =      2    0-nonsym 1-usesym 2-fastsym
   LCORR  =      T    Harris-Foulkes like correction to forces

   POTIM  = 0.5000    time-step for ionic-motion
   TEIN   =    0.0    initial temperature
   TEBEG  =    0.0;   TEEND  =   0.0 temperature during run
   SMASS  =  -3.00    Nose mass-parameter (am)
   estimated Nose-frequenzy (Omega)   =  0.10E-29 period in steps =****** mass=  -0.684E-27a.u.
   SCALEE = 1.0000    scale energy and forces
   NPACO  =    256;   APACO  = 16.0  distance and # of slots for P.C.
   PSTRESS=    0.0 pullay stress

  Mass of Ions in am
   POMASS =  28.09
  Ionic Valenz
   ZVAL   =   4.00
  Atomic Wigner-Seitz radii
   RWIGS  =  -1.00
  virtual crystal weights 
   VCA    =   1.00
   NELECT =      32.0000    total number of electrons
   NUPDOWN=      -1.0000    fix difference up-down

 DOS related values:
   EMIN   =  10.00;   EMAX   =-10.00  energy-range for DOS
   EFERMI =   0.00
   ISMEAR =     0;   SIGMA  =   0.02  broadening in eV -4-tet -1-fermi 0-gaus

 Electronic relaxation 2 (details)
   IALGO  =     68    algorithm
   LDIAG  =      T    sub-space diagonalisation (order eigenvalues)
   LSUBROT=      T    optimize rotation matrix (better conditioning)
   TURBO    =      0    0=normal 1=particle mesh
   IRESTART =      0    0=no restart 2=restart with 2 vectors
   NREBOOT  =      0    no. of reboots
   NMIN     =      0    reboot dimension
   EREF     =   0.00    reference energy to select bands
   IMIX   =      4    mixing-type and parameters
     AMIX     =   0.40;   BMIX     =  1.00
     AMIX_MAG =   1.60;   BMIX_MAG =  1.00
     AMIN     =   0.10
     WC   =   100.;   INIMIX=   1;  MIXPRE=   1;  MAXMIX= -45

 Intra band minimization:
   WEIMIN = 0.0000     energy-eigenvalue tresh-hold
   EBREAK =  0.52E-10  absolut break condition
   DEPER  =   0.30     relativ break condition  

   TIME   =   0.40     timestep for ELM

  volume/ion in A,a.u.               =      20.46       138.06
  Fermi-wavevector in a.u.,A,eV,Ry     =   0.950176  1.795573 12.283814  0.902835
  Thomas-Fermi vector in A             =   2.078528
 
 Write flags
   LWAVE  =      F    write WAVECAR
   LCHARG =      F    write CHGCAR
   LVTOT  =      F    write LOCPOT, total local potential
   LVHAR  =      F    write LOCPOT, Hartree potential only
   LELF   =      F    write electronic localiz. function (ELF)
   LORBIT =      0    0 simple, 1 ext, 2 COOP (PROOUT)


 Dipole corrections
   LMONO  =      F    monopole corrections only (constant potential shift)
   LDIPOL =      F    correct potential (dipole corrections)
   IDIPOL =      0    1-x, 2-y, 3-z, 4-all directions 
   EPSILON=  1.0000000 bulk dielectric constant

 Exchange correlation treatment:
   GGA     =    --    GGA type
   LEXCH   =     7    internal setting for exchange type
   VOSKOWN=      0    Vosko Wilk Nusair interpolation
   LHFCALC =     F    Hartree Fock is set to
   LHFONE  =     F    Hartree Fock one center treatment
   AEXX    =    0.0000 exact exchange contribution

 Linear response parameters
   LEPSILON=     T    determine dielectric tensor
   LRPA    =     F    only Hartree local field effects (RPA)
   LNABLA  =     F    use nabla operator in PAW spheres
   LVEL    =     F    velocity operator in full k-point grid
   LINTERFAST=   F  fast interpolation
   KINTER  =     0    interpolate to denser k-point grid
   CSHIFT  =0.1000    complex shift for real part using Kramers Kronig
   OMEGAMAX=  -1.0    maximum frequency
   DEG_THRESHOLD= 0.2000000E-02 threshold for treating states as degnerate
   RTIME   =    0.100 relaxation time in fs

 Orbital magnetization related:
   ORBITALMAG=     F  switch on orbital magnetization
   LCHIMAG   =     F  perturbation theory with respect to B field
   DQ        =  0.001000  dq finite difference perturbation B field



--------------------------------------------------------------------------------------------------------


 Static calculation
 charge density and potential will be updated during run
 non-spin polarized calculation
 RMM-DIIS sequential band-by-band and
  variant of blocked Davidson during initial phase
 perform sub-space diagonalisation
    before iterative eigenvector-optimisation
 modified Broyden-mixing scheme, WC =      100.0
 initial mixing is a Kerker type mixing with AMIX =  0.4000 and BMIX =      1.0000
 Hartree-type preconditioning will be used
 using additional bands           32
 reciprocal scheme for non local part
 use partial core corrections
 calculate Harris-corrections to forces 
   (improved forces if not selfconsistent)
 use gradient corrections 
 use of overlap-Matrix (Vanderbilt PP)
 Gauss-broadening in eV      SIGMA  =   0.02


--------------------------------------------------------------------------------------------------------


  energy-cutoff  :      200.00
  volume of cell :      163.67
      direct lattice vectors                 reciprocal lattice vectors
     5.470000000  0.000000000  0.000000000     0.182815356  0.000000000  0.000000000
     0.000000000  5.470000000  0.000000000     0.000000000  0.182815356  0.000000000
     0.000000000  0.000000000  5.470000000     0.000000000  0.000000000  0.182815356

  length of vectors
     5.470000000  5.470000000  5.470000000     0.182815356  0.182815356  0.182815356


 
 k-points in units of 2pi/SCALE and weight: Automatic mesh                          
   0.00000000  0.00000000  0.00000000       1.000
 
 k-points in reciprocal lattice and weights: Automatic mesh                          
   0.00000000  0.00000000  0.00000000       1.000
 
 position of ions in fractional coordinates (direct lattice) 
   0.99981876  0.00000328  0.00053386
   0.25000328  0.25053386  0.24951238
   0.50053386  0.49951238  0.00044425
   0.74951238  0.75044425  0.25008565
   0.50044425  0.00008565  0.49939850
   0.75008565  0.24939850  0.75002994
   0.99939850  0.50002994  0.50013147
   0.25002994  0.75013147  0.75006491
 
 position of ions in cartesian coordinates  (Angst):
   5.46900864  0.00001794  0.00292024
   1.36751794  1.37042024  1.36483275
   2.73792024  2.73233275  0.00243004
   4.09983275  4.10493004  1.36796851
   2.73743004  0.00046851  2.73170982
   4.10296851  1.36420982  4.10266377
   5.46670982  2.73516377  2.73571912
   1.36766377  4.10321912  4.10285503
 


--------------------------------------------------------------------------------------------------------


 k-point  1 :   0.0000 0.0000 0.0000  plane waves:    1021

 maximum and minimum number of plane-waves per node :      1021     1021

 maximum number of plane-waves:      1021
 maximum index in each direction: 
   IXMAX=    6   IYMAX=    6   IZMAX=    6
   IXMIN=   -6   IYMIN=   -6   IZMIN=   -6

 NGX is ok and might be reduce to  26
 NGY is ok and might be reduce to  26
 NGZ is ok and might be reduce to  26

 serial   3D FFT for wavefunctions
 parallel 3D FFT for charge:
    minimum data exchange during FFTs selected (reduces bandwidth)


 total amount of memory used by VASP on root node    32224. kBytes
========================================================================

   base      :      30000. kBytes
   nonl-proj :        202. kBytes
   fftplans  :        782. kBytes
   grid      :       1198. kBytes
   one-center:         24. kBytes
   wavefun   :         18. kBytes
 
 Broyden mixing: mesh for mixing (old mesh)
   NGX = 13   NGY = 13   NGZ = 13
  (NGX  = 56   NGY  = 56   NGZ  = 56)
  gives a total of   2197 points

 initial charge density was supplied:
 charge density of overlapping atoms calculated
 number of electron      32.0000000 magnetization 
 keeping initial charge density in first step


--------------------------------------------------------------------------------------------------------


 Maximum index for augmentation-charges         1788 (set IRDMAX)


--------------------------------------------------------------------------------------------------------


 First call to EWALD:  gamma=   0.324
 Maximum number of real-space cells 3x 3x 3
 Maximum number of reciprocal cells 3x 3x 3

 FEWALD executed in parallel
    FEWALD:  cpu time    0.00: real time    0.00


----------------------------------------- Iteration    1(   1)  ---------------------------------------


    POTLOK:  cpu time    0.03: real time    0.04
    SETDIJ:  cpu time    0.02: real time    0.02
     EDDAV:  cpu time    0.43: real time    0.44
       DOS:  cpu time    0.00: real time    0.00
    --------------------------------------------
      LOOP:  cpu time    0.49: real time    0.51

 eigenvalue-minimisations  :    96
 total energy-change (2. order) :-0.1010834E+02  (-0.7956016E+03)
 number of electron      32.0000000 magnetization 
 augmentation part       32.0000000 magnetization 

 Free energy of the ion-electron system (eV)
  ---------------------------------------------------
  alpha Z        PSCENC =        12.68944982
  Ewald energy   TEWEN  =      -907.56633717
  -1/2 Hartree   DENC   =       -45.63676209
  -exchange  EXHF       =         0.00000000
  -V(xc)+E(xc)   XCENC  =       -76.79671278
  PAW double counting   =       265.93453375     -123.69690146
  entropy T*S    EENTRO =        -0.00019242
  eigenvalues    EBANDS =        38.59059816
  atomic energy  EATOM  =       826.37398168
  ---------------------------------------------------
  free energy    TOTEN  =       -10.10834250 eV

  energy without entropy =      -10.10815008  energy(sigma->0) =      -10.10824629


--------------------------------------------------------------------------------------------------------




 average (electrostatic) potential at core
  the test charge radii are     0.9892
  (the norm of the test charge is              1.0000)
       1 -84.3524       2 -84.3512       3 -84.3514       4 -84.3574       5 -84.3521
       6 -84.3528       7 -84.3466       8 -84.3412
 
 
 
 E-fermi :   6.6095     XC(G=0):  -9.5533     alpha+bet :-11.7379


 k-point   1 :       0.0000    0.0000    0.0000
  band No.  band energies     occupation 
      1      -6.5898      2.00000
      2      -2.4161      2.00000
      3      -2.2558      2.00000
      4      -2.1165      2.00000
      5      -2.0321      2.00000
      6      -1.8728      2.00000
      7      -1.6742      2.00000
      8       2.7435      2.00000
      9       2.8475      2.00000
     10       2.9952      2.00000
     11       3.1590      2.00000
     12       3.3476      2.00000
     13       4.0831      2.00000
     14       6.1440      2.00000
     15       6.3667      2.00000
     16       6.5659      1.99798
     17       6.6532      0.00202
     18       6.7962      0.00000
     19       6.9048      0.00000
     20       7.1717      0.00000
     21       7.3766      0.00000
     22       8.0455      0.00000
     23       8.9795      0.00000
     24       9.3736      0.00000
     25      10.4506      0.00000
     26      11.4541      0.00000
     27      13.5066      0.00000
     28      14.7759      0.00000
     29      16.5594      0.00000
     30      16.8917      0.00000
     31      17.3643      0.00000
     32      17.5862      0.00000
     33      17.9255      0.00000
     34      18.1230      0.00000
     35      18.4947      0.00000
     36      18.8796      0.00000
     37      19.3765      0.00000
     38      19.5172      0.00000
     39      19.8567      0.00000
     40      20.2445      0.00000
     41      21.0916      0.00000
     42      21.6770      0.00000
     43      22.1816      0.00000
     44      22.7615      0.00000
     45      23.9014      0.00000
     46      24.3917      0.00000
     47      24.8155      0.00000
     48      25.8334      0.00000


--------------------------------------------------------------------------------------------------------


 soft charge-density along one line, spin component           1
         0         1         2         3         4         5         6         7         8         9
 total charge-density along one line
 
 pseudopotential strength for first ion, spin component:           1
 18.662   0.000   0.000   0.000   0.000   0.000   0.000   0.000
  0.000   0.006   0.000   0.000   0.000   0.000   0.000   0.000
  0.000   0.000   4.216   0.000   0.000  -0.004   0.000   0.000
  0.000   0.000   0.000   4.216   0.000   0.000  -0.004   0.000
  0.000   0.000   0.000   0.000   4.216   0.000   0.000  -0.004
  0.000   0.000  -0.004   0.000   0.000   0.005   0.000   0.000
  0.000   0.000   0.000  -0.004   0.000   0.000   0.005   0.000
  0.000   0.000   0.000   0.000  -0.004   0.000   0.000   0.005
 total augmentation occupancy for first ion, spin component:           1
  2.000   0.000   0.000   0.000   0.000   0.000   0.000   0.000
  0.000   0.000   0.000   0.000   0.000   0.000   0.000   0.000
  0.000   0.000   0.667   0.000   0.000   0.000   0.000   0.000
  0.000   0.000   0.000   0.667   0.000   0.000   0.000   0.000
  0.000   0.000   0.000   0.000   0.667   0.000   0.000   0.000
  0.000   0.000   0.000   0.000   0.000   0.000   0.000   0.000
  0.000   0.000   0.000   0.000   0.000   0.000   0.000   0.000
  0.000   0.000   0.000   0.000   0.000   0.000   0.000   0.000


----------------------------------------- Iteration    1(   2)  ---------------------------------------


     EDDAV:  cpu time    1.01: real time    1.02
       DOS:  cpu time    0.00: real time    0.00
    --------------------------------------------
      LOOP:  cpu time    1.01: real time    1.02

 eigenvalue-minimisations  :   144
 total energy-change (2. order) :-0.2434182E+02  (-0.2433988E+02)
 number of electron      32.0000000 magnetization 
 augmentation part       32.0000000 magnetization 

 Free energy of the ion-electron system (eV)
  ---------------------------------------------------
  alpha Z        PSCENC =        12.68944982
  Ewald energy   TEWEN  =      -907.56633717
  -1/2 Hartree   DENC   =       -45.63676209
  -exchange  EXHF       =         0.00000000
  -V(xc)+E(xc)   XCENC  =       -76.79671278
  PAW double counting   =       265.93453375     -123.69690146
  entropy T*S    EENTRO =         0.00000000
  eigenvalues    EBANDS =        14.24858903
  atomic energy  EATOM  =       826.37398168
  ---------------------------------------------------
  free energy    TOTEN  =       -34.45015921 eV

  energy without entropy =      -34.45015921  energy(sigma->0) =      -34.45015921


--------------------------------------------------------------------------------------------------------




 average (electrostatic) potential at core
  the test charge radii are     0.9892
  (the norm of the test charge is              1.0000)
       1 -84.3524       2 -84.3512       3 -84.3514       4 -84.3574       5 -84.3521
       6 -84.3528       7 -84.3466       8 -84.3412
 
 
 
 E-fermi :   5.2477     XC(G=0):  -9.5533     alpha+bet :-11.7379


 k-point   1 :       0.0000    0.0000    0.0000
  band No.  band energies     occupation 
      1      -6.6372      2.00000
      2      -2.6461      2.00000
      3      -2.6392      2.00000
      4      -2.6319      2.00000
      5      -2.6252      2.00000
      6      -2.6211      2.00000
      7      -2.6114      2.00000
      8       2.3732      2.00000
      9       2.3770      2.00000
     10       2.3801      2.00000
     11       2.3817      2.00000
     12       2.3868      2.00000
     13       2.3972      2.00000
     14       5.0706      2.00000
     15       5.0806      2.00000
     16       5.0892      2.00000
     17       6.1405      0.00000
     18       6.1483      0.00000
     19       6.1568      0.00000
     20       6.1601      0.00000
     21       6.1623      0.00000
     22       6.1716      0.00000
     23       7.8502      0.00000
     24       7.8573      0.00000
     25       7.8641      0.00000
     26       8.1266      0.00000
     27      13.2005      0.00000
     28      13.2621      0.00000
     29      13.2699      0.00000
     30      15.1003      0.00000
     31      15.1315      0.00000
     32      15.1700      0.00000
     33      15.2502      0.00000
     34      15.3104      0.00000
     35      15.6394      0.00000
     36      16.3825      0.00000
     37      16.4264      0.00000
     38      16.4509      0.00000
     39      16.5291      0.00000
     40      16.7211      0.00000
     41      16.7519      0.00000
     42      16.7663      0.00000
     43      16.8649      0.00000
     44      17.2415      0.00000
     45      17.9136      0.00000
     46      17.9571      0.00000
     47      17.9915      0.00000
     48      18.0138      0.00000


--------------------------------------------------------------------------------------------------------


 soft charge-density along one line, spin component           1
         0         1         2         3         4         5         6         7         8         9
 total charge-density along one line
 
 pseudopotential strength for first ion, spin component:           1
 18.662   0.000   0.000   0.000   0.000   0.000   0.000   0.000
  0.000   0.006   0.000   0.000   0.000   0.000   0.000   0.000
  0.000   0.000   4.216   0.000   0.000  -0.004   0.000   0.000
  0.000   0.000   0.000   4.216   0.000   0.000  -0.004   0.000
  0.000   0.000   0.000   0.000   4.216   0.000   0.000  -0.004
  0.000   0.000  -0.004   0.000   0.000   0.005   0.000   0.000
  0.000   0.000   0.000  -0.004   0.000   0.000   0.005   0.000
  0.000   0.000   0.000   0.000  -0.004   0.000   0.000   0.005
 total augmentation occupancy for first ion, spin component:           1
  2.000   0.000   0.000   0.000   0.000   0.000   0.000   0.000
  0.000   0.000   0.000   0.000   0.000   0.000   0.000   0.000
  0.000   0.000   0.667   0.000   0.000   0.000   0.000   0.000
  0.000   0.000   0.000   0.667   0.000   0.000   0.000   0.000
  0.000   0.000   0.000   0.000   0.667   0.000   0.000   0.000
  0.000   0.000   0.000   0.000   0.000   0.000   0.000   0.000
  0.000   0.000   0.000   0.000   0.000   0.000   0.000   0.000
  0.000   0.000   0.000   0.000   0.000   0.000   0.000   0.000


----------------------------------------- Iteration    1(   3)  ---------------------------------------


     EDDAV:  cpu time    0.40: real time    0.40
       DOS:  cpu time    0.00: real time    0.00
    --------------------------------------------
      LOOP:  cpu time    0.41: real time    0.41

 eigenvalue-minimisations  :    96
 total energy-change (2. order) :-0.1674206E+00  (-0.1674206E+00)
 number of electron      32.0000000 magnetization 
 augmentation part       32.0000000 magnetization 

 Free energy of the ion-electron system (eV)
  ---------------------------------------------------
  alpha Z        PSCENC =        12.68944982
  Ewald energy   TEWEN  =      -907.56633717
  -1/2 Hartree   DENC   =       -45.63676209
  -exchange  EXHF       =         0.00000000
  -V(xc)+E(xc)   XCENC  =       -76.79671278
  PAW double counting   =       265.93453375     -123.69690146
  entropy T*S    EENTRO =         0.00000000
  eigenvalues    EBANDS =        14.08116845
  atomic energy  EATOM  =       826.37398168
  ---------------------------------------------------
  free energy    TOTEN  =       -34.61757979 eV

  energy without entropy =      -34.61757979  energy(sigma->0) =      -34.61757979


--------------------------------------------------------------------------------------------------------




 average (electrostatic) potential at core
  the test charge radii are     0.9892
  (the norm of the test charge is              1.0000)
       1 -84.3524       2 -84.3512       3 -84.3514       4 -84.3574       5 -84.3521
       6 -84.3528       7 -84.3466       8 -84.3412
 
 
 
 E-fermi :   5.2229     XC(G=0):  -9.5533     alpha+bet :-11.7379


 k-point   1 :       0.0000    0.0000    0.0000
  band No.  band energies     occupation 
      1      -6.6372      2.00000
      2      -2.6488      2.00000
      3      -2.6411      2.00000
      4      -2.6332      2.00000
      5      -2.6270      2.00000
      6      -2.6240      2.00000
      7      -2.6141      2.00000
      8       2.3693      2.00000
      9       2.3735      2.00000
     10       2.3765      2.00000
     11       2.3795      2.00000
     12       2.3823      2.00000
     13       2.3848      2.00000
     14       5.0599      2.00000
     15       5.0627      2.00000
     16       5.0774      2.00000
     17       6.1367      0.00000
     18       6.1463      0.00000
     19       6.1535      0.00000
     20       6.1563      0.00000
     21       6.1594      0.00000
     22       6.1670      0.00000
     23       7.8436      0.00000
     24       7.8517      0.00000
     25       7.8534      0.00000
     26       8.1178      0.00000
     27      13.1844      0.00000
     28      13.1866      0.00000
     29      13.2693      0.00000
     30      15.0826      0.00000
     31      15.0855      0.00000
     32      15.0930      0.00000
     33      15.1135      0.00000
     34      15.1263      0.00000
     35      15.1855      0.00000
     36      16.3142      0.00000
     37      16.3339      0.00000
     38      16.3422      0.00000
     39      16.3601      0.00000
     40      16.4304      0.00000
     41      16.4959      0.00000
     42      16.7072      0.00000
     43      16.7191      0.00000
     44      16.8211      0.00000
     45      17.8854      0.00000
     46      17.8965      0.00000
     47      17.9138      0.00000
     48      17.9391      0.00000


--------------------------------------------------------------------------------------------------------


 soft charge-density along one line, spin component           1
         0         1         2         3         4         5         6         7         8         9
 total charge-density along one line
 
 pseudopotential strength for first ion, spin component:           1
 18.662   0.000   0.000   0.000   0.000   0.000   0.000   0.000
  0.000   0.006   0.000   0.000   0.000   0.000   0.000   0.000
  0.000   0.000   4.216   0.000   0.000  -0.004   0.000   0.000
  0.000   0.000   0.000   4.216   0.000   0.000  -0.004   0.000
  0.000   0.000   0.000   0.000   4.216   0.000   0.000  -0.004
  0.000   0.000  -0.004   0.000   0.000   0.005   0.000   0.000
  0.000   0.000   0.000  -0.004   0.000   0.000   0.005   0.000
  0.000   0.000   0.000   0.000  -0.004   0.000   0.000   0.005
 total augmentation occupancy for first ion, spin component:           1
  2.000   0.000   0.000   0.000   0.000   0.000   0.000   0.000
  0.000   0.000   0.000   0.000   0.000   0.000   0.000   0.000
  0.000   0.000   0.667   0.000   0.000   0.000   0.000   0.000
  0.000   0.000   0.000   0.667   0.000   0.000   0.000   0.000
  0.000   0.000   0.000   0.000   0.667   0.000   0.000   0.000
  0.000   0.000   0.000   0.000   0.000   0.000   0.000   0.000
  0.000   0.000   0.000   0.000   0.000   0.000   0.000   0.000
  0.000   0.000   0.000   0.000   0.000   0.000   0.000   0.000


----------------------------------------- Iteration    1(   4)  ---------------------------------------


     EDDAV:  cpu time    2.01: real time    2.03
       DOS:  cpu time    0.00: real time    0.00
    --------------------------------------------
      LOOP:  cpu time    2.02: real time    2.04

 eigenvalue-minimisations  :   192
 total energy-change (2. order) :-0.3547800E-03  (-0.3547800E-03)
 number of electron      32.0000000 magnetization 
 augmentation part       32.0000000 magnetization 

 Free energy of the ion-electron system (eV)
  ---------------------------------------------------
  alpha Z        PSCENC =        12.68944982
  Ewald energy   TEWEN  =      -907.56633717
  -1/2 Hartree   DENC   =       -45.63676209
  -exchange  EXHF       =         0.00000000
  -V(xc)+E(xc)   XCENC  =       -76.79671278
  PAW double counting   =       265.93453375     -123.69690146
  entropy T*S    EENTRO =         0.00000000
  eigenvalues    EBANDS =        14.08081367
  atomic energy  EATOM  =       826.37398168
  ---------------------------------------------------
  free energy    TOTEN  =       -34.61793457 eV

  energy without entropy =      -34.61793457  energy(sigma->0) =      -34.61793457


--------------------------------------------------------------------------------------------------------




 average (electrostatic) potential at core
  the test charge radii are     0.9892
  (the norm of the test charge is              1.0000)
       1 -84.3524       2 -84.3512       3 -84.3514       4 -84.3574       5 -84.3521
       6 -84.3528       7 -84.3466       8 -84.3412
 
 
 
 E-fermi :   5.2020     XC(G=0):  -9.5533     alpha+bet :-11.7379


 k-point   1 :       0.0000    0.0000    0.0000
  band No.  band energies     occupation 
      1      -6.6372      2.00000
      2      -2.6488      2.00000
      3      -2.6411      2.00000
      4      -2.6332      2.00000
      5      -2.6270      2.00000
      6      -2.6240      2.00000
      7      -2.6141      2.00000
      8       2.3693      2.00000
      9       2.3735      2.00000
     10       2.3765      2.00000
     11       2.3794      2.00000
     12       2.3823      2.00000
     13       2.3848      2.00000
     14       5.0599      2.00000
     15       5.0627      2.00000
     16       5.0774      2.00000
     17       6.1367      0.00000
     18       6.1463      0.00000
     19       6.1535      0.00000
     20       6.1563      0.00000
     21       6.1594      0.00000
     22       6.1670      0.00000
     23       7.8435      0.00000
     24       7.8517      0.00000
     25       7.8533      0.00000
     26       8.1178      0.00000
     27      13.1837      0.00000
     28      13.1837      0.00000
     29      13.2693      0.00000
     30      15.0762      0.00000
     31      15.0779      0.00000
     32      15.0820      0.00000
     33      15.0860      0.00000
     34      15.0898      0.00000
     35      15.0965      0.00000
     36      16.2896      0.00000
     37      16.3009      0.00000
     38      16.3052      0.00000
     39      16.3161      0.00000
     40      16.3230      0.00000
     41      16.3275      0.00000
     42      16.6978      0.00000
     43      16.7070      0.00000
     44      16.7087      0.00000
     45      17.8728      0.00000
     46      17.8778      0.00000
     47      17.8850      0.00000
     48      17.8958      0.00000


--------------------------------------------------------------------------------------------------------


 soft charge-density along one line, spin component           1
         0         1         2         3         4         5         6         7         8         9
 total charge-density along one line
 
 pseudopotential strength for first ion, spin component:           1
 18.662   0.000   0.000   0.000   0.000   0.000   0.000   0.000
  0.000   0.006   0.000   0.000   0.000   0.000   0.000   0.000
  0.000   0.000   4.216   0.000   0.000  -0.004   0.000   0.000
  0.000   0.000   0.000   4.216   0.000   0.000  -0.004   0.000
  0.000   0.000   0.000   0.000   4.216   0.000   0.000  -0.004
  0.000   0.000  -0.004   0.000   0.000   0.005   0.000   0.000
  0.000   0.000   0.000  -0.004   0.000   0.000   0.005   0.000
  0.000   0.000   0.000   0.000  -0.004   0.000   0.000   0.005
 total augmentation occupancy for first ion, spin component:           1
  2.000   0.000   0.000   0.000   0.000   0.000   0.000   0.000
  0.000   0.000   0.000   0.000   0.000   0.000   0.000   0.000
  0.000   0.000   0.667   0.000   0.000   0.000   0.000   0.000
  0.000   0.000   0.000   0.667   0.000   0.000   0.000   0.000
  0.000   0.000   0.000   0.000   0.667   0.000   0.000   0.000
  0.000   0.000   0.000   0.000   0.000   0.000   0.000   0.000
  0.000   0.000   0.000   0.000   0.000   0.000   0.000   0.000
  0.000   0.000   0.000   0.000   0.000   0.000   0.000   0.000


----------------------------------------- Iteration    1(   5)  ---------------------------------------


     EDDAV:  cpu time    0.39: real time    0.40
       DOS:  cpu time    0.00: real time    0.00
    CHARGE:  cpu time    0.04: real time    0.05
    MIXING:  cpu time    0.06: real time    0.06
    --------------------------------------------
      LOOP:  cpu time    0.50: real time    0.51

 eigenvalue-minimisations  :    96
 total energy-change (2. order) :-0.3055902E-08  (-0.3054573E-08)
 number of electron      31.9999999 magnetization 
 augmentation part       -1.8053363 magnetization 

 Broyden mixing:
  rms(total) = 0.79306E+00    rms(broyden)= 0.79300E+00
  rms(prec ) = 0.15229E+01
  weight for this iteration     100.00

 Free energy of the ion-electron system (eV)
  ---------------------------------------------------
  alpha Z        PSCENC =        12.68944982
  Ewald energy   TEWEN  =      -907.56633717
  -1/2 Hartree   DENC   =       -45.63676209
  -exchange  EXHF       =         0.00000000
  -V(xc)+E(xc)   XCENC  =       -76.79671278
  PAW double counting   =       265.93453375     -123.69690146
  entropy T*S    EENTRO =         0.00000000
  eigenvalues    EBANDS =        14.08081367
  atomic energy  EATOM  =       826.37398168
  ---------------------------------------------------
  free energy    TOTEN  =       -34.61793458 eV

  energy without entropy =      -34.61793458  energy(sigma->0) =      -34.61793458


--------------------------------------------------------------------------------------------------------




 average (electrostatic) potential at core
  the test charge radii are     0.9892
  (the norm of the test charge is              1.0000)
       1 -84.3524       2 -84.3512       3 -84.3514       4 -84.3574       5 -84.3521
       6 -84.3528       7 -84.3466       8 -84.3412
 
 
 
 E-fermi :   5.1964     XC(G=0):  -9.5533     alpha+bet :-11.7379


 k-point   1 :       0.0000    0.0000    0.0000
  band No.  band energies     occupation 
      1      -6.6372      2.00000
      2      -2.6488      2.00000
      3      -2.6411      2.00000
      4      -2.6332      2.00000
      5      -2.6270      2.00000
      6      -2.6240      2.00000
      7      -2.6141      2.00000
      8       2.3693      2.00000
      9       2.3735      2.00000
     10       2.3765      2.00000
     11       2.3794      2.00000
     12       2.3823      2.00000
     13       2.3848      2.00000
     14       5.0599      2.00000
     15       5.0627      2.00000
     16       5.0774      2.00000
     17       6.1367      0.00000
     18       6.1463      0.00000
     19       6.1535      0.00000
     20       6.1563      0.00000
     21       6.1594      0.00000
     22       6.1670      0.00000
     23       7.8435      0.00000
     24       7.8517      0.00000
     25       7.8533      0.00000
     26       8.1178      0.00000
     27      13.1837      0.00000
     28      13.1837      0.00000
     29      13.2693      0.00000
     30      15.0762      0.00000
     31      15.0779      0.00000
     32      15.0819      0.00000
     33      15.0860      0.00000
     34      15.0897      0.00000
     35      15.0965      0.00000
     36      16.2894      0.00000
     37      16.3004      0.00000
     38      16.3049      0.00000
     39      16.3156      0.00000
     40      16.3228      0.00000
     41      16.3273      0.00000
     42      16.6977      0.00000
     43      16.7068      0.00000
     44      16.7085      0.00000
     45      17.8675      0.00000
     46      17.8741      0.00000
     47      17.8787      0.00000
     48      17.8841      0.00000


--------------------------------------------------------------------------------------------------------


 soft charge-density along one line, spin component           1
         0         1         2         3         4         5         6         7         8         9
 total charge-density along one line
 
 pseudopotential strength for first ion, spin component:           1
 18.662   0.000   0.000   0.000   0.000   0.000   0.000   0.000
  0.000   0.006   0.000   0.000   0.000   0.000   0.000   0.000
  0.000   0.000   4.216   0.000   0.000  -0.004   0.000   0.000
  0.000   0.000   0.000   4.216   0.000   0.000  -0.004   0.000
  0.000   0.000   0.000   0.000   4.216   0.000   0.000  -0.004
  0.000   0.000  -0.004   0.000   0.000   0.005   0.000   0.000
  0.000   0.000   0.000  -0.004   0.000   0.000   0.005   0.000
  0.000   0.000   0.000   0.000  -0.004   0.000   0.000   0.005
 total augmentation occupancy for first ion, spin component:           1
  1.380  -1.052   0.001   0.001  -0.002  -0.001   0.000   0.001
 -1.052   0.920   0.000   0.001   0.000   0.001   0.000  -0.001
  0.001   0.000   1.164   0.000   0.001  -0.758   0.001  -0.001
  0.001   0.001   0.000   1.164   0.000   0.001  -0.758   0.000
 -0.002   0.000   0.001   0.000   1.166  -0.001   0.000  -0.760
 -0.001   0.001  -0.758   0.001  -0.001   0.570  -0.001   0.001
  0.000   0.000   0.001  -0.758   0.000  -0.001   0.570   0.000
  0.001  -0.001  -0.001   0.000  -0.760   0.001   0.000   0.571


----------------------------------------- Iteration    1(   6)  ---------------------------------------


    POTLOK:  cpu time    0.02: real time    0.02
    SETDIJ:  cpu time    0.02: real time    0.02
    EDDIAG:  cpu time    0.03: real time    0.04
  RMM-DIIS:  cpu time    0.02: real time    0.02
    ORTHCH:  cpu time    0.01: real time    0.01
       DOS:  cpu time    0.00: real time    0.00
    CHARGE:  cpu time    0.02: real time    0.02
    MIXING:  cpu time    0.00: real time    0.00
    --------------------------------------------
      LOOP:  cpu time    0.14: real time    0.14

 eigenvalue-minimisations  :    96
 total energy-change (2. order) : 0.1001701E+01  (-0.3197802E-01)
 number of electron      31.9999999 magnetization 
 augmentation part       -1.7684106 magnetization 

 Broyden mixing:
  rms(total) = 0.47399E+00    rms(broyden)= 0.47399E+00
  rms(prec ) = 0.91065E+00
  weight for this iteration     100.00

 eigenvalues of (default mixing * dielectric matrix)
  average eigenvalue GAMMA=   2.4573
  2.4573

 Free energy of the ion-electron system (eV)
  ---------------------------------------------------
  alpha Z        PSCENC =        12.68944982
  Ewald energy   TEWEN  =      -907.56633717
  -1/2 Hartree   DENC   =       -54.68323613
  -exchange  EXHF       =         0.00000000
  -V(xc)+E(xc)   XCENC  =       -75.44941794
  PAW double counting   =       286.06057388     -144.35887898
  entropy T*S    EENTRO =         0.00000000
  eigenvalues    EBANDS =        23.31763117
  atomic energy  EATOM  =       826.37398168
  ---------------------------------------------------
  free energy    TOTEN  =       -33.61623367 eV

  energy without entropy =      -33.61623367  energy(sigma->0) =      -33.61623367


--------------------------------------------------------------------------------------------------------




 average (electrostatic) potential at core
  the test charge radii are     0.9892
  (the norm of the test charge is              1.0000)
       1 -83.8337       2 -83.8332       3 -83.8332       4 -83.8361       5 -83.8335
       6 -83.8340       7 -83.8309       8 -83.8282
 
 
 
 E-fermi :   5.5591     XC(G=0):  -9.4504     alpha+bet :-11.7379


 k-point   1 :       0.0000    0.0000    0.0000
  band No.  band energies     occupation 
      1      -6.3788      2.00000
      2      -2.3474      2.00000
      3      -2.3408      2.00000
      4      -2.3344      2.00000
      5      -2.3286      2.00000
      6      -2.3260      2.00000
      7      -2.3176      2.00000
      8       2.6313      2.00000
      9       2.6350      2.00000
     10       2.6376      2.00000
     11       2.6404      2.00000
     12       2.6428      2.00000
     13       2.6452      2.00000
     14       5.3934      2.00000
     15       5.3961      2.00000
     16       5.4106      2.00000
     17       6.2530      0.00000
     18       6.2614      0.00000
     19       6.2677      0.00000
     20       6.2705      0.00000
     21       6.2732      0.00000
     22       6.2799      0.00000
     23       8.0508      0.00000
     24       8.0591      0.00000
     25       8.0608      0.00000
     26       8.4862      0.00000
     27      13.3050      0.00000
     28      13.3568      0.00000
     29      13.3569      0.00000
     30      15.3727      0.00000
     31      15.3745      0.00000
     32      15.3783      0.00000
     33      15.3822      0.00000
     34      15.3855      0.00000
     35      15.3918      0.00000
     36      16.5271      0.00000
     37      16.5372      0.00000
     38      16.5412      0.00000
     39      16.5509      0.00000
     40      16.5574      0.00000
     41      16.5615      0.00000
     42      16.7423      0.00000
     43      16.7516      0.00000
     44      16.7532      0.00000
     45      18.1570      0.00000
     46      18.1629      0.00000
     47      18.1675      0.00000
     48      18.1721      0.00000


--------------------------------------------------------------------------------------------------------


 soft charge-density along one line, spin component           1
         0         1         2         3         4         5         6         7         8         9
 total charge-density along one line
 
 pseudopotential strength for first ion, spin component:           1
 18.635  -0.001   0.000   0.000   0.000   0.000   0.000   0.000
 -0.001   0.006   0.000   0.000   0.000   0.000   0.000   0.000
  0.000   0.000   4.221   0.000   0.000  -0.004   0.000   0.000
  0.000   0.000   0.000   4.221   0.000   0.000  -0.004   0.000
  0.000   0.000   0.000   0.000   4.221   0.000   0.000  -0.004
  0.000   0.000  -0.004   0.000   0.000   0.005   0.000   0.000
  0.000   0.000   0.000  -0.004   0.000   0.000   0.005   0.000
  0.000   0.000   0.000   0.000  -0.004   0.000   0.000   0.005
 total augmentation occupancy for first ion, spin component:           1
  1.351  -1.091   0.001   0.001  -0.002  -0.001   0.000   0.001
 -1.091   0.998   0.000   0.001  -0.001   0.001   0.000  -0.001
  0.001   0.000   1.146  -0.001   0.001  -0.782   0.001  -0.001
  0.001   0.001  -0.001   1.146   0.000   0.001  -0.782   0.000
 -0.002  -0.001   0.001   0.000   1.148  -0.001   0.000  -0.783
 -0.001   0.001  -0.782   0.001  -0.001   0.608  -0.001   0.001
  0.000   0.000   0.001  -0.782   0.000  -0.001   0.608   0.000
  0.001  -0.001  -0.001   0.000  -0.783   0.001   0.000   0.609


----------------------------------------- Iteration    1(   7)  ---------------------------------------


    POTLOK:  cpu time    0.02: real time    0.02
    SETDIJ:  cpu time    0.02: real time    0.02
    EDDIAG:  cpu time    0.02: real time    0.02
  RMM-DIIS:  cpu time    0.03: real time    0.03
    ORTHCH:  cpu time    0.01: real time    0.01
       DOS:  cpu time    0.00: real time    0.00
    CHARGE:  cpu time    0.02: real time    0.02
    MIXING:  cpu time    0.00: real time    0.00
    --------------------------------------------
      LOOP:  cpu time    0.12: real time    0.13

 eigenvalue-minimisations  :    96
 total energy-change (2. order) : 0.4246586E+00  (-0.7387716E-01)
 number of electron      31.9999999 magnetization 
 augmentation part       -1.7214572 magnetization 

 Broyden mixing:
  rms(total) = 0.46252E-01    rms(broyden)= 0.46242E-01
  rms(prec ) = 0.78460E-01
  weight for this iteration     100.00

 eigenvalues of (default mixing * dielectric matrix)
  average eigenvalue GAMMA=   2.5299
  2.5299  2.5299

 Free energy of the ion-electron system (eV)
  ---------------------------------------------------
  alpha Z        PSCENC =        12.68944982
  Ewald energy   TEWEN  =      -907.56633717
  -1/2 Hartree   DENC   =       -70.51388429
  -exchange  EXHF       =         0.00000000
  -V(xc)+E(xc)   XCENC  =       -73.00932599
  PAW double counting   =       313.72422253     -172.73622044
  entropy T*S    EENTRO =         0.00000000
  eigenvalues    EBANDS =        37.84653879
  atomic energy  EATOM  =       826.37398168
  ---------------------------------------------------
  free energy    TOTEN  =       -33.19157507 eV

  energy without entropy =      -33.19157507  energy(sigma->0) =      -33.19157507


--------------------------------------------------------------------------------------------------------




 average (electrostatic) potential at core
  the test charge radii are     0.9892
  (the norm of the test charge is              1.0000)
       1 -83.1457       2 -83.1458       3 -83.1458       4 -83.1482       5 -83.1461
       6 -83.1461       7 -83.1439       8 -83.1429
 
 
 
 E-fermi :   6.0960     XC(G=0):  -9.2018     alpha+bet :-11.7379


 k-point   1 :       0.0000    0.0000    0.0000
  band No.  band energies     occupation 
      1      -5.9621      2.00000
      2      -1.8791      2.00000
      3      -1.8732      2.00000
      4      -1.8680      2.00000
      5      -1.8624      2.00000
      6      -1.8604      2.00000
      7      -1.8531      2.00000
      8       3.0445      2.00000
      9       3.0479      2.00000
     10       3.0499      2.00000
     11       3.0530      2.00000
     12       3.0550      2.00000
     13       3.0573      2.00000
     14       5.9182      2.00000
     15       5.9208      2.00000
     16       5.9349      2.00000
     17       6.5135      0.00000
     18       6.5206      0.00000
     19       6.5256      0.00000
     20       6.5286      0.00000
     21       6.5310      0.00000
     22       6.5366      0.00000
     23       8.3758      0.00000
     24       8.3843      0.00000
     25       8.3860      0.00000
     26       9.0452      0.00000
     27      13.6013      0.00000
     28      13.6204      0.00000
     29      13.6204      0.00000
     30      15.8234      0.00000
     31      15.8251      0.00000
     32      15.8287      0.00000
     33      15.8318      0.00000
     34      15.8352      0.00000
     35      15.8407      0.00000
     36      16.8963      0.00000
     37      16.9047      0.00000
     38      16.9071      0.00000
     39      16.9491      0.00000
     40      16.9575      0.00000
     41      16.9614      0.00000
     42      16.9702      0.00000
     43      16.9758      0.00000
     44      16.9795      0.00000
     45      18.6576      0.00000
     46      18.6613      0.00000
     47      18.6664      0.00000
     48      18.6735      0.00000


--------------------------------------------------------------------------------------------------------


 soft charge-density along one line, spin component           1
         0         1         2         3         4         5         6         7         8         9
 total charge-density along one line
 
 pseudopotential strength for first ion, spin component:           1
 18.596  -0.001   0.000   0.000   0.000   0.000   0.000   0.000
 -0.001   0.006   0.000   0.000   0.000   0.000   0.000   0.000
  0.000   0.000   4.227   0.000   0.000  -0.005   0.000   0.000
  0.000   0.000   0.000   4.227   0.000   0.000  -0.005   0.000
  0.000   0.000   0.000   0.000   4.227   0.000   0.000  -0.005
  0.000   0.000  -0.005   0.000   0.000   0.005   0.000   0.000
  0.000   0.000   0.000  -0.005   0.000   0.000   0.005   0.000
  0.000   0.000   0.000   0.000  -0.005   0.000   0.000   0.005
 total augmentation occupancy for first ion, spin component:           1
  1.315  -1.112   0.001   0.001  -0.002  -0.001   0.000   0.001
 -1.112   1.059   0.000   0.000  -0.001   0.001   0.000   0.000
  0.001   0.000   1.121  -0.001   0.000  -0.805   0.001  -0.001
  0.001   0.000  -0.001   1.122   0.001   0.001  -0.805   0.000
 -0.002  -0.001   0.000   0.001   1.123  -0.001   0.000  -0.806
 -0.001   0.001  -0.805   0.001  -0.001   0.652  -0.001   0.001
  0.000   0.000   0.001  -0.805   0.000  -0.001   0.651   0.001
  0.001   0.000  -0.001   0.000  -0.806   0.001   0.001   0.653


----------------------------------------- Iteration    1(   8)  ---------------------------------------


    POTLOK:  cpu time    0.02: real time    0.02
    SETDIJ:  cpu time    0.02: real time    0.02
    EDDIAG:  cpu time    0.02: real time    0.02
  RMM-DIIS:  cpu time    0.03: real time    0.03
    ORTHCH:  cpu time    0.01: real time    0.01
       DOS:  cpu time    0.00: real time    0.00
    CHARGE:  cpu time    0.02: real time    0.02
    MIXING:  cpu time    0.00: real time    0.00
    --------------------------------------------
      LOOP:  cpu time    0.13: real time    0.13

 eigenvalue-minimisations  :    96
 total energy-change (2. order) :-0.3197203E-01  (-0.2159594E-02)
 number of electron      31.9999999 magnetization 
 augmentation part       -1.7275456 magnetization 

 Broyden mixing:
  rms(total) = 0.75065E-02    rms(broyden)= 0.75059E-02
  rms(prec ) = 0.17984E-01
  weight for this iteration     100.00

 eigenvalues of (default mixing * dielectric matrix)
  average eigenvalue GAMMA=   2.1206
  1.2724  2.8641  2.2251

 Free energy of the ion-electron system (eV)
  ---------------------------------------------------
  alpha Z        PSCENC =        12.68944982
  Ewald energy   TEWEN  =      -907.56633717
  -1/2 Hartree   DENC   =       -70.39886262
  -exchange  EXHF       =         0.00000000
  -V(xc)+E(xc)   XCENC  =       -72.96578668
  PAW double counting   =       307.36596856     -166.19327229
  entropy T*S    EENTRO =         0.00000000
  eigenvalues    EBANDS =        37.47131161
  atomic energy  EATOM  =       826.37398168
  ---------------------------------------------------
  free energy    TOTEN  =       -33.22354710 eV

  energy without entropy =      -33.22354710  energy(sigma->0) =      -33.22354710


--------------------------------------------------------------------------------------------------------




 average (electrostatic) potential at core
  the test charge radii are     0.9892
  (the norm of the test charge is              1.0000)
       1 -83.2496       2 -83.2489       3 -83.2490       4 -83.2538       5 -83.2497
       6 -83.2500       7 -83.2453       8 -83.2414
 
 
 
 E-fermi :   6.0351     XC(G=0):  -9.1505     alpha+bet :-11.7379


 k-point   1 :       0.0000    0.0000    0.0000
  band No.  band energies     occupation 
      1      -5.9632      2.00000
      2      -1.8919      2.00000
      3      -1.8855      2.00000
      4      -1.8795      2.00000
      5      -1.8738      2.00000
      6      -1.8715      2.00000
      7      -1.8633      2.00000
      8       3.0324      2.00000
      9       3.0362      2.00000
     10       3.0383      2.00000
     11       3.0417      2.00000
     12       3.0439      2.00000
     13       3.0463      2.00000
     14       5.9021      2.00000
     15       5.9047      2.00000
     16       5.9188      2.00000
     17       6.5638      0.00000
     18       6.5712      0.00000
     19       6.5764      0.00000
     20       6.5794      0.00000
     21       6.5822      0.00000
     22       6.5880      0.00000
     23       8.3652      0.00000
     24       8.3736      0.00000
     25       8.3753      0.00000
     26       9.0381      0.00000
     27      13.6064      0.00000
     28      13.6064      0.00000
     29      13.7782      0.00000
     30      15.8089      0.00000
     31      15.8104      0.00000
     32      15.8141      0.00000
     33      15.8169      0.00000
     34      15.8206      0.00000
     35      15.8262      0.00000
     36      16.9330      0.00000
     37      16.9397      0.00000
     38      16.9431      0.00000
     39      16.9562      0.00000
     40      16.9639      0.00000
     41      16.9683      0.00000
     42      16.9774      0.00000
     43      16.9828      0.00000
     44      16.9868      0.00000
     45      18.6951      0.00000
     46      18.6983      0.00000
     47      18.7040      0.00000
     48      18.7120      0.00000


--------------------------------------------------------------------------------------------------------


 soft charge-density along one line, spin component           1
         0         1         2         3         4         5         6         7         8         9
 total charge-density along one line
 
 pseudopotential strength for first ion, spin component:           1
 18.599  -0.001   0.000   0.000   0.000   0.000   0.000   0.000
 -0.001   0.006   0.000   0.000   0.000   0.000   0.000   0.000
  0.000   0.000   4.224   0.000   0.000  -0.005   0.000   0.000
  0.000   0.000   0.000   4.224   0.000   0.000  -0.005   0.000
  0.000   0.000   0.000   0.000   4.224   0.000   0.000  -0.005
  0.000   0.000  -0.005   0.000   0.000   0.005   0.000   0.000
  0.000   0.000   0.000  -0.005   0.000   0.000   0.005   0.000
  0.000   0.000   0.000   0.000  -0.005   0.000   0.000   0.005
 total augmentation occupancy for first ion, spin component:           1
  1.320  -1.093   0.001   0.001  -0.002  -0.001   0.000   0.002
 -1.093   1.022   0.000   0.000  -0.001   0.001   0.000  -0.001
  0.001   0.000   1.123  -0.001   0.000  -0.801   0.001  -0.001
  0.001   0.000  -0.001   1.123   0.001   0.001  -0.801   0.000
 -0.002  -0.001   0.000   0.001   1.124  -0.001   0.000  -0.802
 -0.001   0.001  -0.801   0.001  -0.001   0.647  -0.001   0.002
  0.000   0.000   0.001  -0.801   0.000  -0.001   0.647   0.000
  0.002  -0.001  -0.001   0.000  -0.802   0.002   0.000   0.648


----------------------------------------- Iteration    1(   9)  ---------------------------------------


    POTLOK:  cpu time    0.02: real time    0.02
    SETDIJ:  cpu time    0.02: real time    0.02
    EDDIAG:  cpu time    0.02: real time    0.02
  RMM-DIIS:  cpu time    0.03: real time    0.04
    ORTHCH:  cpu time    0.00: real time    0.01
       DOS:  cpu time    0.00: real time    0.00
    CHARGE:  cpu time    0.02: real time    0.02
    MIXING:  cpu time    0.00: real time    0.00
    --------------------------------------------
      LOOP:  cpu time    0.13: real time    0.14

 eigenvalue-minimisations  :   106
 total energy-change (2. order) :-0.1138951E-02  (-0.1267406E-03)
 number of electron      31.9999999 magnetization 
 augmentation part       -1.7274664 magnetization 

 Broyden mixing:
  rms(total) = 0.41759E-02    rms(broyden)= 0.41758E-02
  rms(prec ) = 0.68458E-02
  weight for this iteration     100.00

 eigenvalues of (default mixing * dielectric matrix)
  average eigenvalue GAMMA=   2.2794
  0.9845  3.1845  2.6562  2.2926

 Free energy of the ion-electron system (eV)
  ---------------------------------------------------
  alpha Z        PSCENC =        12.68944982
  Ewald energy   TEWEN  =      -907.56633717
  -1/2 Hartree   DENC   =       -70.79554410
  -exchange  EXHF       =         0.00000000
  -V(xc)+E(xc)   XCENC  =       -72.90653245
  PAW double counting   =       307.71538537     -166.55305207
  entropy T*S    EENTRO =         0.00000000
  eigenvalues    EBANDS =        37.81796287
  atomic energy  EATOM  =       826.37398168
  ---------------------------------------------------
  free energy    TOTEN  =       -33.22468605 eV

  energy without entropy =      -33.22468605  energy(sigma->0) =      -33.22468605


--------------------------------------------------------------------------------------------------------




 average (electrostatic) potential at core
  the test charge radii are     0.9892
  (the norm of the test charge is              1.0000)
       1 -83.2352       2 -83.2345       3 -83.2346       4 -83.2380       5 -83.2351
       6 -83.2356       7 -83.2320       8 -83.2288
 
 
 
 E-fermi :   6.0499     XC(G=0):  -9.1363     alpha+bet :-11.7379


 k-point   1 :       0.0000    0.0000    0.0000
  band No.  band energies     occupation 
      1      -5.9520      2.00000
      2      -1.8802      2.00000
      3      -1.8740      2.00000
      4      -1.8684      2.00000
      5      -1.8627      2.00000
      6      -1.8605      2.00000
      7      -1.8527      2.00000
      8       3.0425      2.00000
      9       3.0461      2.00000
     10       3.0482      2.00000
     11       3.0514      2.00000
     12       3.0535      2.00000
     13       3.0559      2.00000
     14       5.9142      2.00000
     15       5.9168      2.00000
     16       5.9309      2.00000
     17       6.5777      0.00000
     18       6.5852      0.00000
     19       6.5905      0.00000
     20       6.5935      0.00000
     21       6.5963      0.00000
     22       6.6021      0.00000
     23       8.3728      0.00000
     24       8.3813      0.00000
     25       8.3829      0.00000
     26       9.0526      0.00000
     27      13.6116      0.00000
     28      13.6117      0.00000
     29      13.8105      0.00000
     30      15.8193      0.00000
     31      15.8209      0.00000
     32      15.8246      0.00000
     33      15.8276      0.00000
     34      15.8311      0.00000
     35      15.8367      0.00000
     36      16.9431      0.00000
     37      16.9500      0.00000
     38      16.9532      0.00000
     39      16.9683      0.00000
     40      16.9761      0.00000
     41      16.9804      0.00000
     42      16.9894      0.00000
     43      16.9948      0.00000
     44      16.9987      0.00000
     45      18.7130      0.00000
     46      18.7160      0.00000
     47      18.7223      0.00000
     48      18.7305      0.00000


--------------------------------------------------------------------------------------------------------


 soft charge-density along one line, spin component           1
         0         1         2         3         4         5         6         7         8         9
 total charge-density along one line
 
 pseudopotential strength for first ion, spin component:           1
 18.598  -0.001   0.000   0.000   0.000   0.000   0.000   0.000
 -0.001   0.006   0.000   0.000   0.000   0.000   0.000   0.000
  0.000   0.000   4.224   0.000   0.000  -0.005   0.000   0.000
  0.000   0.000   0.000   4.224   0.000   0.000  -0.005   0.000
  0.000   0.000   0.000   0.000   4.224   0.000   0.000  -0.005
  0.000   0.000  -0.005   0.000   0.000   0.005   0.000   0.000
  0.000   0.000   0.000  -0.005   0.000   0.000   0.005   0.000
  0.000   0.000   0.000   0.000  -0.005   0.000   0.000   0.005
 total augmentation occupancy for first ion, spin component:           1
  1.320  -1.087   0.001   0.001  -0.002  -0.001   0.000   0.002
 -1.087   1.013   0.000   0.001  -0.001   0.001   0.000  -0.001
  0.001   0.000   1.122  -0.001   0.000  -0.800   0.001  -0.001
  0.001   0.001  -0.001   1.122   0.001   0.001  -0.801   0.000
 -0.002  -0.001   0.000   0.001   1.124  -0.001   0.000  -0.802
 -0.001   0.001  -0.800   0.001  -0.001   0.647  -0.001   0.002
  0.000   0.000   0.001  -0.801   0.000  -0.001   0.647   0.000
  0.002  -0.001  -0.001   0.000  -0.802   0.002   0.000   0.648


----------------------------------------- Iteration    1(  10)  ---------------------------------------


    POTLOK:  cpu time    0.02: real time    0.02
    SETDIJ:  cpu time    0.02: real time    0.02
    EDDIAG:  cpu time    0.02: real time    0.02
  RMM-DIIS:  cpu time    0.02: real time    0.02
    ORTHCH:  cpu time    0.01: real time    0.01
       DOS:  cpu time    0.00: real time    0.00
    CHARGE:  cpu time    0.02: real time    0.02
    MIXING:  cpu time    0.00: real time    0.00
    --------------------------------------------
      LOOP:  cpu time    0.12: real time    0.12

 eigenvalue-minimisations  :   104
 total energy-change (2. order) :-0.1852218E-03  (-0.2295641E-04)
 number of electron      31.9999999 magnetization 
 augmentation part       -1.7273553 magnetization 

 Broyden mixing:
  rms(total) = 0.41021E-03    rms(broyden)= 0.40974E-03
  rms(prec ) = 0.83814E-03
  weight for this iteration     100.00

 eigenvalues of (default mixing * dielectric matrix)
  average eigenvalue GAMMA=   2.0371
  3.0882  2.6226  2.1625  0.9785  1.3336

 Free energy of the ion-electron system (eV)
  ---------------------------------------------------
  alpha Z        PSCENC =        12.68944982
  Ewald energy   TEWEN  =      -907.56633717
  -1/2 Hartree   DENC   =       -70.84561178
  -exchange  EXHF       =         0.00000000
  -V(xc)+E(xc)   XCENC  =       -72.90953069
  PAW double counting   =       307.79876734     -166.64236789
  entropy T*S    EENTRO =         0.00000000
  eigenvalues    EBANDS =        37.87677742
  atomic energy  EATOM  =       826.37398168
  ---------------------------------------------------
  free energy    TOTEN  =       -33.22487127 eV

  energy without entropy =      -33.22487127  energy(sigma->0) =      -33.22487127


--------------------------------------------------------------------------------------------------------




 average (electrostatic) potential at core
  the test charge radii are     0.9892
  (the norm of the test charge is              1.0000)
       1 -83.2267       2 -83.2263       3 -83.2262       4 -83.2288       5 -83.2266
       6 -83.2270       7 -83.2242       8 -83.2218
 
 
 
 E-fermi :   6.0543     XC(G=0):  -9.1309     alpha+bet :-11.7379


 k-point   1 :       0.0000    0.0000    0.0000
  band No.  band energies     occupation 
      1      -5.9496      2.00000
      2      -1.8780      2.00000
      3      -1.8719      2.00000
      4      -1.8665      2.00000
      5      -1.8609      2.00000
      6      -1.8586      2.00000
      7      -1.8511      2.00000
      8       3.0443      2.00000
      9       3.0478      2.00000
     10       3.0498      2.00000
     11       3.0530      2.00000
     12       3.0550      2.00000
     13       3.0573      2.00000
     14       5.9162      2.00000
     15       5.9188      2.00000
     16       5.9328      2.00000
     17       6.5828      0.00000
     18       6.5903      0.00000
     19       6.5957      0.00000
     20       6.5986      0.00000
     21       6.6014      0.00000
     22       6.6073      0.00000
     23       8.3737      0.00000
     24       8.3822      0.00000
     25       8.3838      0.00000
     26       9.0561      0.00000
     27      13.6116      0.00000
     28      13.6117      0.00000
     29      13.8259      0.00000
     30      15.8210      0.00000
     31      15.8226      0.00000
     32      15.8262      0.00000
     33      15.8294      0.00000
     34      15.8328      0.00000
     35      15.8385      0.00000
     36      16.9469      0.00000
     37      16.9537      0.00000
     38      16.9570      0.00000
     39      16.9711      0.00000
     40      16.9787      0.00000
     41      16.9830      0.00000
     42      16.9920      0.00000
     43      16.9973      0.00000
     44      17.0012      0.00000
     45      18.7202      0.00000
     46      18.7229      0.00000
     47      18.7290      0.00000
     48      18.7371      0.00000


--------------------------------------------------------------------------------------------------------


 soft charge-density along one line, spin component           1
         0         1         2         3         4         5         6         7         8         9
 total charge-density along one line
 
 pseudopotential strength for first ion, spin component:           1
 18.597  -0.001   0.000   0.000   0.000   0.000   0.000   0.000
 -0.001   0.006   0.000   0.000   0.000   0.000   0.000   0.000
  0.000   0.000   4.224   0.000   0.000  -0.005   0.000   0.000
  0.000   0.000   0.000   4.224   0.000   0.000  -0.005   0.000
  0.000   0.000   0.000   0.000   4.224   0.000   0.000  -0.005
  0.000   0.000  -0.005   0.000   0.000   0.005   0.000   0.000
  0.000   0.000   0.000  -0.005   0.000   0.000   0.005   0.000
  0.000   0.000   0.000   0.000  -0.005   0.000   0.000   0.005
 total augmentation occupancy for first ion, spin component:           1
  1.320  -1.087   0.001   0.001  -0.002  -0.001   0.000   0.002
 -1.087   1.013   0.000   0.001  -0.001   0.001   0.000  -0.001
  0.001   0.000   1.122  -0.001   0.000  -0.801   0.001  -0.001
  0.001   0.001  -0.001   1.122   0.001   0.001  -0.801   0.000
 -0.002  -0.001   0.000   0.001   1.124  -0.001   0.000  -0.802
 -0.001   0.001  -0.801   0.001  -0.001   0.648  -0.001   0.002
  0.000   0.000   0.001  -0.801   0.000  -0.001   0.648   0.000
  0.002  -0.001  -0.001   0.000  -0.802   0.002   0.000   0.649


----------------------------------------- Iteration    1(  11)  ---------------------------------------


    POTLOK:  cpu time    0.02: real time    0.02
    SETDIJ:  cpu time    0.02: real time    0.02
    EDDIAG:  cpu time    0.02: real time    0.02
  RMM-DIIS:  cpu time    0.02: real time    0.02
    ORTHCH:  cpu time    0.01: real time    0.01
       DOS:  cpu time    0.00: real time    0.00
    CHARGE:  cpu time    0.02: real time    0.02
    MIXING:  cpu time    0.00: real time    0.00
    --------------------------------------------
      LOOP:  cpu time    0.12: real time    0.13

 eigenvalue-minimisations  :   117
 total energy-change (2. order) : 0.4310707E-05  (-0.2708817E-06)
 number of electron      31.9999999 magnetization 
 augmentation part       -1.7274448 magnetization 

 Broyden mixing:
  rms(total) = 0.15969E-03    rms(broyden)= 0.15963E-03
  rms(prec ) = 0.31397E-03
  weight for this iteration     100.00

 eigenvalues of (default mixing * dielectric matrix)
  average eigenvalue GAMMA=   1.9606
  3.2073  2.7011  2.1723  1.7174  0.9828  0.9828

 Free energy of the ion-electron system (eV)
  ---------------------------------------------------
  alpha Z        PSCENC =        12.68944982
  Ewald energy   TEWEN  =      -907.56633717
  -1/2 Hartree   DENC   =       -70.82788169
  -exchange  EXHF       =         0.00000000
  -V(xc)+E(xc)   XCENC  =       -72.91096263
  PAW double counting   =       307.73306537     -166.57419178
  entropy T*S    EENTRO =         0.00000000
  eigenvalues    EBANDS =        37.85800944
  atomic energy  EATOM  =       826.37398168
  ---------------------------------------------------
  free energy    TOTEN  =       -33.22486696 eV

  energy without entropy =      -33.22486696  energy(sigma->0) =      -33.22486696


--------------------------------------------------------------------------------------------------------




 average (electrostatic) potential at core
  the test charge radii are     0.9892
  (the norm of the test charge is              1.0000)
       1 -83.2287       2 -83.2281       3 -83.2281       4 -83.2313       5 -83.2286
       6 -83.2290       7 -83.2257       8 -83.2228
 
 
 
 E-fermi :   6.0540     XC(G=0):  -9.1314     alpha+bet :-11.7379


 k-point   1 :       0.0000    0.0000    0.0000
  band No.  band energies     occupation 
      1      -5.9502      2.00000
      2      -1.8788      2.00000
      3      -1.8727      2.00000
      4      -1.8671      2.00000
      5      -1.8614      2.00000
      6      -1.8592      2.00000
      7      -1.8514      2.00000
      8       3.0436      2.00000
      9       3.0472      2.00000
     10       3.0492      2.00000
     11       3.0525      2.00000
     12       3.0546      2.00000
     13       3.0569      2.00000
     14       5.9155      2.00000
     15       5.9181      2.00000
     16       5.9322      2.00000
     17       6.5823      0.00000
     18       6.5898      0.00000
     19       6.5951      0.00000
     20       6.5981      0.00000
     21       6.6009      0.00000
     22       6.6067      0.00000
     23       8.3733      0.00000
     24       8.3817      0.00000
     25       8.3834      0.00000
     26       9.0553      0.00000
     27      13.6114      0.00000
     28      13.6114      0.00000
     29      13.8248      0.00000
     30      15.8204      0.00000
     31      15.8220      0.00000
     32      15.8257      0.00000
     33      15.8287      0.00000
     34      15.8322      0.00000
     35      15.8379      0.00000
     36      16.9466      0.00000
     37      16.9533      0.00000
     38      16.9566      0.00000
     39      16.9705      0.00000
     40      16.9781      0.00000
     41      16.9824      0.00000
     42      16.9914      0.00000
     43      16.9968      0.00000
     44      17.0007      0.00000
     45      18.7207      0.00000
     46      18.7236      0.00000
     47      18.7292      0.00000
     48      18.7370      0.00000


--------------------------------------------------------------------------------------------------------


 soft charge-density along one line, spin component           1
         0         1         2         3         4         5         6         7         8         9
 total charge-density along one line
 
 pseudopotential strength for first ion, spin component:           1
 18.597  -0.001   0.000   0.000   0.000   0.000   0.000   0.000
 -0.001   0.006   0.000   0.000   0.000   0.000   0.000   0.000
  0.000   0.000   4.224   0.000   0.000  -0.005   0.000   0.000
  0.000   0.000   0.000   4.224   0.000   0.000  -0.005   0.000
  0.000   0.000   0.000   0.000   4.224   0.000   0.000  -0.005
  0.000   0.000  -0.005   0.000   0.000   0.005   0.000   0.000
  0.000   0.000   0.000  -0.005   0.000   0.000   0.005   0.000
  0.000   0.000   0.000   0.000  -0.005   0.000   0.000   0.005
 total augmentation occupancy for first ion, spin component:           1
  1.320  -1.087   0.001   0.001  -0.002  -0.001   0.000   0.002
 -1.087   1.012   0.000   0.001  -0.001   0.001   0.000  -0.001
  0.001   0.000   1.122  -0.001   0.000  -0.801   0.001  -0.001
  0.001   0.001  -0.001   1.122   0.001   0.001  -0.801   0.000
 -0.002  -0.001   0.000   0.001   1.124  -0.001   0.000  -0.802
 -0.001   0.001  -0.801   0.001  -0.001   0.648  -0.001   0.002
  0.000   0.000   0.001  -0.801   0.000  -0.001   0.648   0.000
  0.002  -0.001  -0.001   0.000  -0.802   0.002   0.000   0.649


----------------------------------------- Iteration    1(  12)  ---------------------------------------


    POTLOK:  cpu time    0.02: real time    0.02
    SETDIJ:  cpu time    0.02: real time    0.02
    EDDIAG:  cpu time    0.02: real time    0.02
  RMM-DIIS:  cpu time    0.03: real time    0.03
    ORTHCH:  cpu time    0.01: real time    0.01
       DOS:  cpu time    0.00: real time    0.00
    CHARGE:  cpu time    0.02: real time    0.02
    MIXING:  cpu time    0.00: real time    0.00
    --------------------------------------------
      LOOP:  cpu time    0.13: real time    0.14

 eigenvalue-minimisations  :   126
 total energy-change (2. order) :-0.6891229E-06  (-0.5943601E-07)
 number of electron      31.9999999 magnetization 
 augmentation part       -1.7274320 magnetization 

 Broyden mixing:
  rms(total) = 0.59920E-04    rms(broyden)= 0.59883E-04
  rms(prec ) = 0.85595E-04
  weight for this iteration     100.00

 eigenvalues of (default mixing * dielectric matrix)
  average eigenvalue GAMMA=   1.9960
  3.2205  2.7363  2.4406  2.0614  1.5539  1.0000  0.9595

 Free energy of the ion-electron system (eV)
  ---------------------------------------------------
  alpha Z        PSCENC =        12.68944982
  Ewald energy   TEWEN  =      -907.56633717
  -1/2 Hartree   DENC   =       -70.83229206
  -exchange  EXHF       =         0.00000000
  -V(xc)+E(xc)   XCENC  =       -72.91089033
  PAW double counting   =       307.74105592     -166.58240080
  entropy T*S    EENTRO =         0.00000000
  eigenvalues    EBANDS =        37.86256529
  atomic energy  EATOM  =       826.37398168
  ---------------------------------------------------
  free energy    TOTEN  =       -33.22486765 eV

  energy without entropy =      -33.22486765  energy(sigma->0) =      -33.22486765


--------------------------------------------------------------------------------------------------------




 average (electrostatic) potential at core
  the test charge radii are     0.9892
  (the norm of the test charge is              1.0000)
       1 -83.2282       2 -83.2276       3 -83.2276       4 -83.2309       5 -83.2281
       6 -83.2285       7 -83.2252       8 -83.2222
 
 
 
 E-fermi :   6.0545     XC(G=0):  -9.1311     alpha+bet :-11.7379


 k-point   1 :       0.0000    0.0000    0.0000
  band No.  band energies     occupation 
      1      -5.9501      2.00000
      2      -1.8787      2.00000
      3      -1.8725      2.00000
      4      -1.8670      2.00000
      5      -1.8613      2.00000
      6      -1.8590      2.00000
      7      -1.8513      2.00000
      8       3.0437      2.00000
      9       3.0473      2.00000
     10       3.0493      2.00000
     11       3.0526      2.00000
     12       3.0547      2.00000
[...]
    MIXING:  cpu time    0.00: real time    0.00
    --------------------------------------------
      LOOP:  cpu time    0.16: real time    0.17

 Broyden mixing:
  rms(total) = 0.70605E-02    rms(broyden)= 0.70602E-02
  rms(prec ) = 0.12117E-01
  weight for this iteration     100.00

 eigenvalues of (default mixing * dielectric matrix)
  average eigenvalue GAMMA=   2.0729
  3.0299  2.4853  1.1216  1.6548

 Free energy of the ion-electron system (eV)
  ---------------------------------------------------
  -1/2 Hartree   DENC   =        -4.61492337
  -V(xc)+E(xc)   XCENC  =         0.94973646
  PAW double counting   =         3.10168783       -3.15107094
  entropy T*S    EENTRO =         0.00000000
  eigenvalues    EBANDS =       -24.52786230
  ---------------------------------------------------
  free energy    TOTEN  =       -28.24243232 eV

  energy without entropy =      -28.24243232


----------------------------------------- Iteration    3(   7)  ---------------------------------------


   POT+DIJ:  cpu time    0.08: real time    0.08
    HAMIL1:  cpu time    0.00: real time    0.01
    LRDIAG:  cpu time    0.01: real time    0.01
    LRDIIS:  cpu time    0.02: real time    0.02
    LRDIAG:  cpu time    0.01: real time    0.01
    MIXING:  cpu time    0.00: real time    0.00
    --------------------------------------------
      LOOP:  cpu time    0.16: real time    0.16

 Broyden mixing:
  rms(total) = 0.54237E-03    rms(broyden)= 0.54144E-03
  rms(prec ) = 0.10278E-02
  weight for this iteration     100.00

 eigenvalues of (default mixing * dielectric matrix)
  average eigenvalue GAMMA=   1.9511
  3.0877  2.4139  1.1142  1.6696  1.4703

 Free energy of the ion-electron system (eV)
  ---------------------------------------------------
  -1/2 Hartree   DENC   =        -4.62679222
  -V(xc)+E(xc)   XCENC  =         0.95743512
  PAW double counting   =         3.06483438       -3.11366479
  entropy T*S    EENTRO =         0.00000000
  eigenvalues    EBANDS =       -24.56405337
  ---------------------------------------------------
  free energy    TOTEN  =       -28.28224088 eV

  energy without entropy =      -28.28224088


----------------------------------------- Iteration    3(   8)  ---------------------------------------


   POT+DIJ:  cpu time    0.08: real time    0.08
    HAMIL1:  cpu time    0.01: real time    0.01
    LRDIAG:  cpu time    0.01: real time    0.01
    LRDIIS:  cpu time    0.02: real time    0.02
    LRDIAG:  cpu time    0.01: real time    0.01
    MIXING:  cpu time    0.00: real time    0.00
    --------------------------------------------
      LOOP:  cpu time    0.16: real time    0.16

 Broyden mixing:
  rms(total) = 0.27693E-03    rms(broyden)= 0.27686E-03
  rms(prec ) = 0.40957E-03
  weight for this iteration     100.00

 eigenvalues of (default mixing * dielectric matrix)
  average eigenvalue GAMMA=   1.9153
  3.0869  2.4811  2.0415  1.6647  1.1309  1.0867

 Free energy of the ion-electron system (eV)
  ---------------------------------------------------
  -1/2 Hartree   DENC   =        -4.63033524
  -V(xc)+E(xc)   XCENC  =         0.95836348
  PAW double counting   =         3.06872978       -3.11762552
  entropy T*S    EENTRO =         0.00000000
  eigenvalues    EBANDS =       -24.56507260
  ---------------------------------------------------
  free energy    TOTEN  =       -28.28594009 eV

  energy without entropy =      -28.28594009


----------------------------------------- Iteration    3(   9)  ---------------------------------------


   POT+DIJ:  cpu time    0.08: real time    0.08
    HAMIL1:  cpu time    0.01: real time    0.01
    LRDIAG:  cpu time    0.01: real time    0.01
    LRDIIS:  cpu time    0.02: real time    0.02
    LRDIAG:  cpu time    0.01: real time    0.01
    MIXING:  cpu time    0.00: real time    0.00
    --------------------------------------------
      LOOP:  cpu time    0.16: real time    0.16

 Broyden mixing:
  rms(total) = 0.10392E-03    rms(broyden)= 0.10389E-03
  rms(prec ) = 0.15751E-03
  weight for this iteration     100.00

 eigenvalues of (default mixing * dielectric matrix)
  average eigenvalue GAMMA=   1.8923
  3.1757  2.7328  2.3967  1.6746  1.2738  1.1026  0.8902

 Free energy of the ion-electron system (eV)
  ---------------------------------------------------
  -1/2 Hartree   DENC   =        -4.63000252
  -V(xc)+E(xc)   XCENC  =         0.95829747
  PAW double counting   =         3.07080866       -3.11974031
  entropy T*S    EENTRO =         0.00000000
  eigenvalues    EBANDS =       -24.56533736
  ---------------------------------------------------
  free energy    TOTEN  =       -28.28597406 eV

  energy without entropy =      -28.28597406


----------------------------------------- Iteration    3(  10)  ---------------------------------------


   POT+DIJ:  cpu time    0.08: real time    0.08
    HAMIL1:  cpu time    0.00: real time    0.01
    LRDIAG:  cpu time    0.01: real time    0.01
    LRDIIS:  cpu time    0.02: real time    0.02
    LRDIAG:  cpu time    0.01: real time    0.01
    MIXING:  cpu time    0.00: real time    0.00
    --------------------------------------------
      LOOP:  cpu time    0.16: real time    0.16

 Broyden mixing:
  rms(total) = 0.14959E-04    rms(broyden)= 0.14948E-04
  rms(prec ) = 0.24243E-04
  weight for this iteration     100.00

 eigenvalues of (default mixing * dielectric matrix)
  average eigenvalue GAMMA=   1.8361
  3.1954  2.7684  2.4482  1.6700  1.4249  0.9664  1.1194  1.0963

 Free energy of the ion-electron system (eV)
  ---------------------------------------------------
  -1/2 Hartree   DENC   =        -4.63008763
  -V(xc)+E(xc)   XCENC  =         0.95833977
  PAW double counting   =         3.07194565       -3.12089707
  entropy T*S    EENTRO =         0.00000000
  eigenvalues    EBANDS =       -24.56559228
  ---------------------------------------------------
  free energy    TOTEN  =       -28.28629155 eV

  energy without entropy =      -28.28629155


----------------------------------------- Iteration    3(  11)  ---------------------------------------


   POT+DIJ:  cpu time    0.08: real time    0.08
    HAMIL1:  cpu time    0.01: real time    0.01
    LRDIAG:  cpu time    0.01: real time    0.01
    LRDIIS:  cpu time    0.02: real time    0.02
    LRDIAG:  cpu time    0.01: real time    0.01
    MIXING:  cpu time    0.00: real time    0.00
    --------------------------------------------
      LOOP:  cpu time    0.16: real time    0.16

 Broyden mixing:
  rms(total) = 0.39332E-05    rms(broyden)= 0.39312E-05
  rms(prec ) = 0.57858E-05
  weight for this iteration     100.00

 eigenvalues of (default mixing * dielectric matrix)
  average eigenvalue GAMMA=   1.8624
  3.2006  2.7912  2.4369  2.1635  1.6711  1.3838  1.1043  0.9801  1.0303

 Free energy of the ion-electron system (eV)
  ---------------------------------------------------
  -1/2 Hartree   DENC   =        -4.63009785
  -V(xc)+E(xc)   XCENC  =         0.95833702
  PAW double counting   =         3.07203368       -3.12098658
  entropy T*S    EENTRO =         0.00000000
  eigenvalues    EBANDS =       -24.56557162
  ---------------------------------------------------
  free energy    TOTEN  =       -28.28628535 eV

  energy without entropy =      -28.28628535


----------------------------------------- Iteration    3(  12)  ---------------------------------------


   POT+DIJ:  cpu time    0.08: real time    0.08
    HAMIL1:  cpu time    0.00: real time    0.01
    LRDIAG:  cpu time    0.01: real time    0.01
    LRDIIS:  cpu time    0.02: real time    0.02
    LRDIAG:  cpu time    0.01: real time    0.01
    MIXING:  cpu time    0.00: real time    0.00
    --------------------------------------------
      LOOP:  cpu time    0.16: real time    0.16

 Broyden mixing:
  rms(total) = 0.13265E-05    rms(broyden)= 0.13261E-05
  rms(prec ) = 0.19196E-05
  weight for this iteration     100.00

 eigenvalues of (default mixing * dielectric matrix)
  average eigenvalue GAMMA=   1.8417
  3.2048  2.8006  2.4579  2.4579  1.6704  1.3538  1.3538  1.0051  1.0051  1.1074

 Free energy of the ion-electron system (eV)
  ---------------------------------------------------
  -1/2 Hartree   DENC   =        -4.63009845
  -V(xc)+E(xc)   XCENC  =         0.95833695
  PAW double counting   =         3.07196326       -3.12091494
  entropy T*S    EENTRO =         0.00000000
  eigenvalues    EBANDS =       -24.56557320
  ---------------------------------------------------
  free energy    TOTEN  =       -28.28628637 eV

  energy without entropy =      -28.28628637


----------------------------------------- Iteration    3(  13)  ---------------------------------------


   POT+DIJ:  cpu time    0.09: real time    0.09
    HAMIL1:  cpu time    0.01: real time    0.01
    LRDIAG:  cpu time    0.01: real time    0.01
    LRDIIS:  cpu time    0.02: real time    0.02
    LRDIAG:  cpu time    0.01: real time    0.01
    MIXING:  cpu time    0.00: real time    0.00
    --------------------------------------------
      LOOP:  cpu time    0.16: real time    0.17

 Broyden mixing:
  rms(total) = 0.32081E-06    rms(broyden)= 0.32074E-06
  rms(prec ) = 0.57637E-06
  weight for this iteration     100.00

 eigenvalues of (default mixing * dielectric matrix)
  average eigenvalue GAMMA=   1.8180
  3.2085  2.8385  2.4360  2.6150  1.6890  1.6505  1.3068  0.9945  0.9945  1.1098
  1.1544

 Free energy of the ion-electron system (eV)
  ---------------------------------------------------
  -1/2 Hartree   DENC   =        -4.63009949
  -V(xc)+E(xc)   XCENC  =         0.95833704
  PAW double counting   =         3.07193571       -3.12088694
  entropy T*S    EENTRO =         0.00000000
  eigenvalues    EBANDS =       -24.56557310
  ---------------------------------------------------
  free energy    TOTEN  =       -28.28628677 eV

  energy without entropy =      -28.28628677


------------------------ aborting loop because EDIFF is reached ----------------------------------------


 change of polarisation eV/A/(eV/A) component  3 :     0.139    -0.099    50.532
 dielectric tensor                  component  3 :     0.153    -0.110    56.869


--------------------------------------------------------------------------------------------------------


    FORLOC:  cpu time    0.00: real time    0.00
    FORNL :  cpu time    0.09: real time    0.10
    STRESS:  cpu time    0.30: real time    0.31
    FORCOR:  cpu time    0.02: real time    0.02
    FORLOC:  cpu time    0.00: real time    0.00
    FORNL :  cpu time    0.09: real time    0.09
    STRESS:  cpu time    0.32: real time    0.32
    FORCOR:  cpu time    0.02: real time    0.02
    FORNLD:  cpu time    0.01: real time    0.01

 PIEZOELECTRIC TENSOR FIELD DIRECTION 3  (e Angst)
 -----------------------------------------------------------------------------
    -0.01186 -0.00248  0.00329           (  0.00001  0.00000  0.00000)
    -0.00248  0.00803 -0.00180           (  0.00000  0.00000 -0.00001)
     0.00329 -0.00180 -0.00113           (  0.00000 -0.00001 -0.00001)

 PIEZOELECTRIC TENSOR FIELD DIRECTION 3  (C/m^2)
 -----------------------------------------------------------------------------
    -0.00116 -0.00024  0.00032
    -0.00024  0.00079 -0.00018
     0.00032 -0.00018 -0.00011


      POSITION         DIRECTION 3           BORN EFFECTIVE CHARGE    (rigid.aug.   ionic)
 -----------------------------------------------------------------------------------------
      5.46901      0.00002      0.00292    -0.09857 -0.11128 -5.74888 (  0.21594  4.00000)
      1.36752      1.37042      1.36483    -0.09257  0.11721 -5.74791 (  0.21593  4.00000)
      2.73792      2.73233      0.00243     0.05559  0.04885 -5.76538 (  0.21593  4.00000)
      4.09983      4.10493      1.36797    -0.07122 -0.08609 -5.69048 (  0.21596  4.00000)
      2.73743      0.00047      2.73171     0.09032 -0.03959 -5.77344 (  0.21594  4.00000)
      4.10297      1.36421      4.10266     0.08613  0.08722 -5.78081 (  0.21594  4.00000)
      5.46671      2.73516      2.73572    -0.06937  0.11436 -5.81774 (  0.21591  4.00000)
      1.36766      4.10322      4.10286     0.06393 -0.10608 -5.88763 (  0.21588  4.00000)
 -----------------------------------------------------------------------------------------
    total drift (improves with k-points):  -0.03575  0.02461-46.21227




--------------------------------------------------------------------------------------------------------


  LATTYP: Found a simple cubic cell.
 ALAT       =     5.4700000000
  
  Lattice vectors:
  
 A1 = (   5.4700000000,   0.0000000000,   0.0000000000)
 A2 = (   0.0000000000,   5.4700000000,   0.0000000000)
 A3 = (   0.0000000000,   0.0000000000,   5.4700000000)


Analysis of symmetry for initial positions (statically):
=====================================================================
 Subroutine PRICEL returns:
 Original cell was already a primitive cell.
 

 Routine SETGRP: Setting up the symmetry group for a 
 simple cubic supercell.


 Subroutine GETGRP returns: Found  1 space group operations
 (whereof  1 operations were pure point group operations)
 out of a pool of 48 trial point group operations.


The static configuration has the point symmetry C_1 .


Analysis of symmetry for dynamics (positions and initial velocities):
=====================================================================
 Subroutine PRICEL returns:
 Original cell was already a primitive cell.
 

 Routine SETGRP: Setting up the symmetry group for a 
 simple cubic supercell.


 Subroutine GETGRP returns: Found  1 space group operations
 (whereof  1 operations were pure point group operations)
 out of a pool of 48 trial point group operations.


The dynamic configuration has the point symmetry C_1 .


 MACROSCOPIC STATIC DIELECTRIC TENSOR (including local field effects in DFT)
 ------------------------------------------------------
          56.861605    -0.144870     0.153385
          -0.144868    56.859739    -0.109920
           0.153387    -0.109920    56.868870
 ------------------------------------------------------



--------------------------------------------------------------------------------------------------------


  LATTYP: Found a simple cubic cell.
 ALAT       =     5.4700000000
  
  Lattice vectors:
  
 A1 = (   5.4700000000,   0.0000000000,   0.0000000000)
 A2 = (   0.0000000000,   5.4700000000,   0.0000000000)
 A3 = (   0.0000000000,   0.0000000000,   5.4700000000)


Analysis of symmetry for initial positions (statically):
=====================================================================
 Subroutine PRICEL returns:
 Original cell was already a primitive cell.
 

 Routine SETGRP: Setting up the symmetry group for a 
 simple cubic supercell.


 Subroutine GETGRP returns: Found  1 space group operations
 (whereof  1 operations were pure point group operations)
 out of a pool of 48 trial point group operations.


The static configuration has the point symmetry C_1 .


Analysis of symmetry for dynamics (positions and initial velocities):
=====================================================================
 Subroutine PRICEL returns:
 Original cell was already a primitive cell.
 

 Routine SETGRP: Setting up the symmetry group for a 
 simple cubic supercell.


 Subroutine GETGRP returns: Found  1 space group operations
 (whereof  1 operations were pure point group operations)
 out of a pool of 48 trial point group operations.


The dynamic configuration has the point symmetry C_1 .
 
 KPOINTS: Automatic mesh                          

Automatic generation of k-mesh.
Space group operators:
 irot       det(A)        alpha          n_x          n_y          n_z        tau_x        tau_y        tau_z
    1     1.000000     0.000001     1.000000     0.000000     0.000000     0.000000     0.000000     0.000000
 
 Subroutine IBZKPT returns following result:
 ===========================================
 
 Found      1 irreducible k-points:
 
 Following reciprocal coordinates:
            Coordinates               Weight
  0.000000  0.000000  0.000000      1.000000
 
 Following cartesian coordinates:
            Coordinates               Weight
  0.000000  0.000000  0.000000      1.000000
 


--------------------------------------------------------------------------------------------------------




 MACROSCOPIC STATIC DIELECTRIC TENSOR (including local field effects in DFT)
 ------------------------------------------------------
          56.861605    -0.144870     0.153385
          -0.144868    56.859739    -0.109920
           0.153387    -0.109920    56.868870
 ------------------------------------------------------


 PIEZOELECTRIC TENSOR  for field in x, y, z        (e  Angst)
          XX          YY          ZZ          XY          YZ          ZX
  --------------------------------------------------------------------------------
  x    -0.00210    -0.00931     0.00342     0.00469     0.00460    -0.00448
  y     0.01052     0.00160    -0.01437    -0.00190     0.00483     0.00014
  z    -0.01186     0.00803    -0.00113    -0.00248    -0.00180     0.00329

 PIEZOELECTRIC TENSOR  for field in x, y, z        (C/m^2)
          XX          YY          ZZ          XY          YZ          ZX
  --------------------------------------------------------------------------------
  x    -0.00021    -0.00091     0.00033     0.00046     0.00045    -0.00044
  y     0.00103     0.00016    -0.00141    -0.00019     0.00047     0.00001
  z    -0.00116     0.00079    -0.00011    -0.00024    -0.00018     0.00032
 
 BORN EFFECTIVE CHARGES (in e, cummulative output)
 -------------------------------------------------
 ion    1
    1    -5.76995     0.11856     0.04405
    2    -0.05752    -5.74627     0.14183
    3    -0.09857    -0.11128    -5.74888
 ion    2
    1    -5.80436    -0.01051     0.03984
    2    -0.01898    -5.76675    -0.05010
    3    -0.09257     0.11721    -5.74791
 ion    3
    1    -5.75685    -0.11409    -0.06791
    2     0.06593    -5.78493     0.04397
    3     0.05559     0.04885    -5.76538
 ion    4
    1    -5.68757     0.02302     0.07598
    2     0.02694    -5.72379     0.08033
    3    -0.07122    -0.08609    -5.69048
 ion    5
    1    -5.75504     0.07785    -0.04896
    2    -0.07615    -5.75271    -0.03616
    3     0.09032    -0.03959    -5.77344
 ion    6
    1    -5.72421    -0.12832    -0.05079
    2     0.14052    -5.74721    -0.07679
    3     0.08613     0.08722    -5.78081
 ion    7
    1    -5.82178    -0.07347     0.05819
    2     0.08589    -5.82121    -0.14280
    3    -0.06937     0.11436    -5.81774
 ion    8
    1    -5.89183     0.13727    -0.08596
    2    -0.13571    -5.86735     0.06412
    3     0.06393    -0.10608    -5.88763


--------------------------------------------------------------------------------------------------------


     LOOP+:  cpu time   20.34: real time   20.87
    4ORBIT:  cpu time    0.00: real time    0.00

 total amount of memory used by VASP on root node    32224. kBytes
========================================================================

   base      :      30000. kBytes
   nonl-proj :        202. kBytes
   fftplans  :        782. kBytes
   grid      :       1198. kBytes
   one-center:         24. kBytes
   wavefun   :         18. kBytes
 
  
  
 General timing and accounting informations for this job:
 ========================================================
  
                  Total CPU time used (sec):       21.422
                            User time (sec):       16.958
                          System time (sec):        4.463
                         Elapsed time (sec):       23.449
  
                   Maximum memory used (kb):       73568.
                   Average memory used (kb):           0.
  
                          Minor page faults:       211460
                          Major page faults:            0
                 Voluntary context switches:         1526
