 vasp.5.3.3 18Dez12 (build Jan  9 2014 12:00:49) complex                        
  
 executed on             LinuxIFC date 2014.01.29  10:11:09
 running on   48 total cores
 distrk:  each k-point on   48 cores,    1 groups
 distr:  one band on NCORES_PER_BAND=   1 cores,   48 groups


--------------------------------------------------------------------------------------------------------


 INCAR:
 POTCAR:    PAW Si                                

 ----------------------------------------------------------------------------- 
|                                                                             |
|           W    W    AA    RRRRR   N    N  II  N    N   GGGG   !!!           |
|           W    W   A  A   R    R  NN   N  II  NN   N  G    G  !!!           |
|           W    W  A    A  R    R  N N  N  II  N N  N  G       !!!           |
|           W WW W  AAAAAA  RRRRR   N  N N  II  N  N N  G  GGG   !            |
|           WW  WW  A    A  R   R   N   NN  II  N   NN  G    G                |
|           W    W  A    A  R    R  N    N  II  N    N   GGGG   !!!           |
|                                                                             |
|      For optimal performance we recommend that you set                      |
|        NPAR = 4 - approx SQRT( number of cores)                             |
|      (number of cores/NPAR must be integer)                                 |
|      This setting will greatly improve the performance of VASP for DFT.     |
|      The default NPAR=number of cores might be grossly inefficient          |
|      on modern multi-core architectures or massively parallel machines.     |
|      Do your own testing.                                                   |
|      Unfortunately you need to use the default for hybrid, GW and RPA       |
|      calculations.                                                          |
|                                                                             |
 ----------------------------------------------------------------------------- 

 POTCAR:    PAW Si                                
   VRHFIN =Si: s2p2                                                             
   LEXCH  = 91                                                                  
   EATOM  =   103.3076 eV,    7.5929 Ry                                         
                                                                                
   TITEL  = PAW Si                                                              
   LULTRA =        F    use ultrasoft PP ?                                      
   IUNSCR =        1    unscreen: 0-lin 1-nonlin 2-no                           
   RPACOR =    1.500    partial core radius                                     
   POMASS =   28.085; ZVAL   =    4.000    mass and valenz                      
   RCORE  =    1.900    outmost cutoff radius                                   
   RWIGS  =    2.480; RWIGS  =    1.312    wigner-seitz radius (au A)           
   ENMAX  =  245.435; ENMIN  =  184.076 eV                                      
   ICORE  =        2    local potential                                         
   LCOR   =        T    correct aug charges                                     
   LPAW   =        T    paw PP                                                  
   EAUG   =  322.069                                                            
   DEXC   =    -.001                                                            
   RMAX   =    2.943    core radius for proj-oper                               
   RAUG   =    1.300    factor for augmentation sphere                          
   RDEP   =    1.993    core radius for depl-charge                             
   QCUT   =   -4.247; QGAM   =    8.494    optimization parameters              
                                                                                
   Description                                                                  
     l     E      TYP  RCUT    TYP  RCUT                                        
     0   .000     23  1.900                                                     
     0   .000     23  1.900                                                     
     1   .000     23  1.900                                                     
     1   .000     23  1.900                                                     
     2   .000      7  1.900                                                     
  local pseudopotential read in
  partial core-charges read in
  atomic valenz-charges read in
  non local Contribution for L=           0  read in
    real space projection operators read in
  non local Contribution for L=           0  read in
    real space projection operators read in
  non local Contribution for L=           1  read in
    real space projection operators read in
  non local Contribution for L=           1  read in
    real space projection operators read in
    PAW grid and wavefunctions read in
 
   number of l-projection  operators is LMAX  =           4
   number of lm-projection operators is LMMAX =           8
 
  PAW Si                                :
 energy of atom  1       EATOM= -103.3076
 kinetic energy error for atom=    0.0109 (will be added to EATOM!!)
 
 
 POSCAR: OUTCAR.0021.-1.out 1.0e-02              
  positions in cartesian coordinates
  No initial velocities read in
 exchange correlation table for  LEXCH =        7
   RHO(1)=    0.500       N(1)  =     2000
   RHO(2)=  100.500       N(2)  =     4000

 VTST: version 3.0c, (01/09/14)

 CHAIN: initializing optimizer
 
 OPT: Using VASP Dynamics algorithm
 CHAIN: Read ICHAIN            0
 
 POSCAR: OUTCAR.0021.-1.out 1.0e-02              
  positions in cartesian coordinates
  No initial velocities read in
 


--------------------------------------------------------------------------------------------------------


 ion  position               nearest neighbor table
   1  0.000  0.999  0.000-   8 2.37   4 2.37   2 2.37   6 2.37
   2  0.249  0.250  0.250-   7 2.36   1 2.37   3 2.37   5 2.37
   3  0.500  0.500  0.000-   4 2.37   2 2.37   6 2.37   8 2.37
   4  0.750  0.750  0.250-   5 2.37   1 2.37   3 2.37   7 2.37
   5  0.500  0.000  0.500-   6 2.37   4 2.37   2 2.37   8 2.37
   6  0.750  0.250  0.749-   7 2.36   5 2.37   3 2.37   1 2.37
   7  1.000  0.499  0.500-   6 2.36   2 2.36   8 2.37   4 2.37
   8  0.249  0.750  0.750-   1 2.37   7 2.37   5 2.37   3 2.37
 
  LATTYP: Found a simple cubic cell.
 ALAT       =     5.4700000000
  
  Lattice vectors:
  
 A1 = (   5.4700000000,   0.0000000000,   0.0000000000)
 A2 = (   0.0000000000,   5.4700000000,   0.0000000000)
 A3 = (   0.0000000000,   0.0000000000,   5.4700000000)


Analysis of symmetry for initial positions (statically):
=====================================================================
 Subroutine PRICEL returns:
 Original cell was already a primitive cell.
 

 Routine SETGRP: Setting up the symmetry group for a 
 simple cubic supercell.


 Subroutine GETGRP returns: Found  1 space group operations
 (whereof  1 operations were pure point group operations)
 out of a pool of 48 trial point group operations.


The static configuration has the point symmetry C_1 .


Analysis of symmetry for dynamics (positions and initial velocities):
=====================================================================
 Subroutine PRICEL returns:
 Original cell was already a primitive cell.
 

 Routine SETGRP: Setting up the symmetry group for a 
 simple cubic supercell.


 Subroutine GETGRP returns: Found  1 space group operations
 (whereof  1 operations were pure point group operations)
 out of a pool of 48 trial point group operations.


The dynamic configuration has the point symmetry C_1 .


 irot  :   1
 --------------------------------------------------------------------
 isymop:   1   0   0
           0   1   0
           0   0   1

 gtrans:     0.0000000     0.0000000     0.0000000

 ptrans:     0.0000000     0.0000000     0.0000000
 rotmap:
 (   1->   1)  (   2->   2)  (   3->   3)  (   4->   4)  (   5->   5) 
 (   6->   6)  (   7->   7)  (   8->   8) 
 
 
 KPOINTS: Automatic mesh                          

Automatic generation of k-mesh.
Space group operators:
 irot       det(A)        alpha          n_x          n_y          n_z        tau_x        tau_y        tau_z
    1     1.000000     0.000001     1.000000     0.000000     0.000000     0.000000     0.000000     0.000000
 
 Subroutine IBZKPT returns following result:
 ===========================================
 
 Found      1 irreducible k-points:
 
 Following reciprocal coordinates:
            Coordinates               Weight
  0.000000  0.000000  0.000000      1.000000
 
 Following cartesian coordinates:
            Coordinates               Weight
  0.000000  0.000000  0.000000      1.000000
 
 
 Subroutine IBZKPT_HF returns following result:
 ==============================================
 
 Found      1 k-points in 1st BZ
 the following      1 k-points will be used (e.g. in the exchange kernel)
 Following reciprocal coordinates:   # in IRBZ
  0.000000  0.000000  0.000000       1 t-inv F


--------------------------------------------------------------------------------------------------------




 Dimension of arrays:
   k-points           NKPTS =      1   k-points in BZ     NKDIM =      1   number of bands    NBANDS=     48
   number of dos      NEDOS =    301   number of ions     NIONS =      8
   non local maximal  LDIM  =      4   non local SUM 2l+1 LMDIM =      8
   total plane-waves  NPLWV =  21952
   max r-space proj   IRMAX =      1   max aug-charges    IRDMAX=  36071
   dimension x,y,z NGX =    28 NGY =   28 NGZ =   28
   dimension x,y,z NGXF=    56 NGYF=   56 NGZF=   56
   support grid    NGXF=   112 NGYF=  112 NGZF=  112
   ions per type =               8
 NGX,Y,Z   is equivalent  to a cutoff of   8.51,  8.51,  8.51 a.u.
 NGXF,Y,Z  is equivalent  to a cutoff of  17.02, 17.02, 17.02 a.u.


 I would recommend the setting:
   dimension x,y,z NGX =    19 NGY =   19 NGZ =   19
 SYSTEM =  NAPTHA04                                
 POSCAR =  OUTCAR.0021.-1.out 1.0e-02              

 Startparameter for this run:
   NWRITE =      3    write-flag & timer
   PREC   = normal    normal or accurate (medium, high low for compatibility)
   ISTART =      0    job   : 0-new  1-cont  2-samecut
   ICHARG =      2    charge: 1-file 2-atom 10-const
   ISPIN  =      1    spin polarized calculation?
   LNONCOLLINEAR =      F non collinear calculations
   LSORBIT =      F    spin-orbit coupling
   INIWAV =      1    electr: 0-lowe 1-rand  2-diag
   LASPH  =      F    aspherical Exc in radial PAW
   METAGGA=      F    non-selfconsistent MetaGGA calc.

 Electronic Relaxation 1
   ENCUT  =  200.0 eV  14.70 Ry    3.83 a.u.   6.31  6.31  6.31*2*pi/ulx,y,z
   ENINI  =  200.0     initial cutoff
   ENAUG  =  322.1 eV  augmentation charge cutoff
   NELM   =     60;   NELMIN=  2; NELMDL= -5     # of ELM steps 
   EDIFF  = 0.1E-07   stopping-criterion for ELM
   LREAL  =      F    real-space projection
   NLSPLINE    = F    spline interpolate recip. space projectors
   LCOMPAT=      F    compatible to vasp.4.4
   GGA_COMPAT  = T    GGA compatible to vasp.4.4-vasp.4.6
   LMAXPAW     = -100 max onsite density
   LMAXMIX     =    2 max onsite mixed and CHGCAR
   VOSKOWN=      0    Vosko Wilk Nusair interpolation
   ROPT   =    0.00000
 Ionic relaxation
   EDIFFG = 0.1E-06   stopping-criterion for IOM
   NSW    =      0    number of steps for IOM
   NBLOCK =      1;   KBLOCK =      1    inner block; outer block 
   IBRION =     -1    ionic relax: 0-MD 1-quasi-New 2-CG
   NFREE  =      0    steps in history (QN), initial steepest desc. (CG)
   ISIF   =      2    stress and relaxation
   IWAVPR =     10    prediction:  0-non 1-charg 2-wave 3-comb
   ISYM   =      2    0-nonsym 1-usesym 2-fastsym
   LCORR  =      T    Harris-Foulkes like correction to forces

   POTIM  = 0.5000    time-step for ionic-motion
   TEIN   =    0.0    initial temperature
   TEBEG  =    0.0;   TEEND  =   0.0 temperature during run
   SMASS  =  -3.00    Nose mass-parameter (am)
   estimated Nose-frequenzy (Omega)   =  0.10E-29 period in steps =****** mass=  -0.684E-27a.u.
   SCALEE = 1.0000    scale energy and forces
   NPACO  =    256;   APACO  = 16.0  distance and # of slots for P.C.
   PSTRESS=    0.0 pullay stress

  Mass of Ions in am
   POMASS =  28.09
  Ionic Valenz
   ZVAL   =   4.00
  Atomic Wigner-Seitz radii
   RWIGS  =  -1.00
  virtual crystal weights 
   VCA    =   1.00
   NELECT =      32.0000    total number of electrons
   NUPDOWN=      -1.0000    fix difference up-down

 DOS related values:
   EMIN   =  10.00;   EMAX   =-10.00  energy-range for DOS
   EFERMI =   0.00
   ISMEAR =     0;   SIGMA  =   0.02  broadening in eV -4-tet -1-fermi 0-gaus

 Electronic relaxation 2 (details)
   IALGO  =     68    algorithm
   LDIAG  =      T    sub-space diagonalisation (order eigenvalues)
   LSUBROT=      T    optimize rotation matrix (better conditioning)
   TURBO    =      0    0=normal 1=particle mesh
   IRESTART =      0    0=no restart 2=restart with 2 vectors
   NREBOOT  =      0    no. of reboots
   NMIN     =      0    reboot dimension
   EREF     =   0.00    reference energy to select bands
   IMIX   =      4    mixing-type and parameters
     AMIX     =   0.40;   BMIX     =  1.00
     AMIX_MAG =   1.60;   BMIX_MAG =  1.00
     AMIN     =   0.10
     WC   =   100.;   INIMIX=   1;  MIXPRE=   1;  MAXMIX= -45

 Intra band minimization:
   WEIMIN = 0.0000     energy-eigenvalue tresh-hold
   EBREAK =  0.52E-10  absolut break condition
   DEPER  =   0.30     relativ break condition  

   TIME   =   0.40     timestep for ELM

  volume/ion in A,a.u.               =      20.46       138.06
  Fermi-wavevector in a.u.,A,eV,Ry     =   0.950176  1.795573 12.283814  0.902835
  Thomas-Fermi vector in A             =   2.078528
 
 Write flags
   LWAVE  =      F    write WAVECAR
   LCHARG =      F    write CHGCAR
   LVTOT  =      F    write LOCPOT, total local potential
   LVHAR  =      F    write LOCPOT, Hartree potential only
   LELF   =      F    write electronic localiz. function (ELF)
   LORBIT =      0    0 simple, 1 ext, 2 COOP (PROOUT)


 Dipole corrections
   LMONO  =      F    monopole corrections only (constant potential shift)
   LDIPOL =      F    correct potential (dipole corrections)
   IDIPOL =      0    1-x, 2-y, 3-z, 4-all directions 
   EPSILON=  1.0000000 bulk dielectric constant

 Exchange correlation treatment:
   GGA     =    --    GGA type
   LEXCH   =     7    internal setting for exchange type
   VOSKOWN=      0    Vosko Wilk Nusair interpolation
   LHFCALC =     F    Hartree Fock is set to
   LHFONE  =     F    Hartree Fock one center treatment
   AEXX    =    0.0000 exact exchange contribution

 Linear response parameters
   LEPSILON=     T    determine dielectric tensor
   LRPA    =     F    only Hartree local field effects (RPA)
   LNABLA  =     F    use nabla operator in PAW spheres
   LVEL    =     F    velocity operator in full k-point grid
   LINTERFAST=   F  fast interpolation
   KINTER  =     0    interpolate to denser k-point grid
   CSHIFT  =0.1000    complex shift for real part using Kramers Kronig
   OMEGAMAX=  -1.0    maximum frequency
   DEG_THRESHOLD= 0.2000000E-02 threshold for treating states as degnerate
   RTIME   =    0.100 relaxation time in fs

 Orbital magnetization related:
   ORBITALMAG=     F  switch on orbital magnetization
   LCHIMAG   =     F  perturbation theory with respect to B field
   DQ        =  0.001000  dq finite difference perturbation B field



--------------------------------------------------------------------------------------------------------


 Static calculation
 charge density and potential will be updated during run
 non-spin polarized calculation
 RMM-DIIS sequential band-by-band and
  variant of blocked Davidson during initial phase
 perform sub-space diagonalisation
    before iterative eigenvector-optimisation
 modified Broyden-mixing scheme, WC =      100.0
 initial mixing is a Kerker type mixing with AMIX =  0.4000 and BMIX =      1.0000
 Hartree-type preconditioning will be used
 using additional bands           32
 reciprocal scheme for non local part
 use partial core corrections
 calculate Harris-corrections to forces 
   (improved forces if not selfconsistent)
 use gradient corrections 
 use of overlap-Matrix (Vanderbilt PP)
 Gauss-broadening in eV      SIGMA  =   0.02


--------------------------------------------------------------------------------------------------------


  energy-cutoff  :      200.00
  volume of cell :      163.67
      direct lattice vectors                 reciprocal lattice vectors
     5.470000000  0.000000000  0.000000000     0.182815356  0.000000000  0.000000000
     0.000000000  5.470000000  0.000000000     0.000000000  0.182815356  0.000000000
     0.000000000  0.000000000  5.470000000     0.000000000  0.000000000  0.182815356

  length of vectors
     5.470000000  5.470000000  5.470000000     0.182815356  0.182815356  0.182815356


 
 k-points in units of 2pi/SCALE and weight: Automatic mesh                          
   0.00000000  0.00000000  0.00000000       1.000
 
 k-points in reciprocal lattice and weights: Automatic mesh                          
   0.00000000  0.00000000  0.00000000       1.000
 
 position of ions in fractional coordinates (direct lattice) 
   0.00019513  0.99935057  0.00042509
   0.24935057  0.25042509  0.24986790
   0.50042509  0.49986790  0.00026860
   0.74986790  0.75026860  0.25035056
   0.50026860  0.00035056  0.49997205
   0.75035056  0.24997205  0.74934760
   0.99997205  0.49934760  0.50002065
   0.24934760  0.75002065  0.75003023
 
 position of ions in cartesian coordinates  (Angst):
   0.00106737  5.46644761  0.00232523
   1.36394761  1.36982523  1.36677740
   2.73732523  2.73427740  0.00146924
   4.10177740  4.10396924  1.36941756
   2.73646924  0.00191756  2.73484711
   4.10441756  1.36734711  4.09893138
   5.46984711  2.73143138  2.73511298
   1.36393138  4.10261298  4.10266537
 


--------------------------------------------------------------------------------------------------------


 k-point  1 :   0.0000 0.0000 0.0000  plane waves:    1021

 maximum and minimum number of plane-waves per node :      1021     1021

 maximum number of plane-waves:      1021
 maximum index in each direction: 
   IXMAX=    6   IYMAX=    6   IZMAX=    6
   IXMIN=   -6   IYMIN=   -6   IZMIN=   -6

 NGX is ok and might be reduce to  26
 NGY is ok and might be reduce to  26
 NGZ is ok and might be reduce to  26

 serial   3D FFT for wavefunctions
 parallel 3D FFT for charge:
    minimum data exchange during FFTs selected (reduces bandwidth)


 total amount of memory used by VASP on root node    32224. kBytes
========================================================================

   base      :      30000. kBytes
   nonl-proj :        202. kBytes
   fftplans  :        782. kBytes
   grid      :       1198. kBytes
   one-center:         24. kBytes
   wavefun   :         18. kBytes
 
 Broyden mixing: mesh for mixing (old mesh)
   NGX = 13   NGY = 13   NGZ = 13
  (NGX  = 56   NGY  = 56   NGZ  = 56)
  gives a total of   2197 points

 initial charge density was supplied:
 charge density of overlapping atoms calculated
 number of electron      32.0000000 magnetization 
 keeping initial charge density in first step


--------------------------------------------------------------------------------------------------------


 Maximum index for augmentation-charges         1782 (set IRDMAX)


--------------------------------------------------------------------------------------------------------


 First call to EWALD:  gamma=   0.324
 Maximum number of real-space cells 3x 3x 3
 Maximum number of reciprocal cells 3x 3x 3

 FEWALD executed in parallel
    FEWALD:  cpu time    0.00: real time    0.00


----------------------------------------- Iteration    1(   1)  ---------------------------------------


    POTLOK:  cpu time    0.03: real time    0.03
    SETDIJ:  cpu time    0.02: real time    0.02
     EDDAV:  cpu time    0.40: real time    0.40
       DOS:  cpu time    0.00: real time    0.00
    --------------------------------------------
      LOOP:  cpu time    0.45: real time    0.46

 eigenvalue-minimisations  :    96
 total energy-change (2. order) :-0.1010697E+02  (-0.7955821E+03)
 number of electron      32.0000000 magnetization 
 augmentation part       32.0000000 magnetization 

 Free energy of the ion-electron system (eV)
  ---------------------------------------------------
  alpha Z        PSCENC =        12.68944982
  Ewald energy   TEWEN  =      -907.56617001
  -1/2 Hartree   DENC   =       -45.63656458
  -exchange  EXHF       =         0.00000000
  -V(xc)+E(xc)   XCENC  =       -76.79670866
  PAW double counting   =       265.93453375     -123.69690146
  entropy T*S    EENTRO =        -0.00050505
  eigenvalues    EBANDS =        38.59191401
  atomic energy  EATOM  =       826.37398168
  ---------------------------------------------------
  free energy    TOTEN  =       -10.10697050 eV

  energy without entropy =      -10.10646545  energy(sigma->0) =      -10.10671798


--------------------------------------------------------------------------------------------------------




 average (electrostatic) potential at core
  the test charge radii are     0.9892
  (the norm of the test charge is              1.0000)
       1 -84.3521       2 -84.3523       3 -84.3449       4 -84.3525       5 -84.3487
       6 -84.3515       7 -84.3569       8 -84.3463
 
 
 
 E-fermi :   6.6078     XC(G=0):  -9.5533     alpha+bet :-11.7379


 k-point   1 :       0.0000    0.0000    0.0000
  band No.  band energies     occupation 
      1      -6.5896      2.00000
      2      -2.4155      2.00000
      3      -2.2558      2.00000
      4      -2.1241      2.00000
      5      -2.0259      2.00000
      6      -1.8728      2.00000
      7      -1.6745      2.00000
      8       2.7414      2.00000
      9       2.8501      2.00000
     10       2.9917      2.00000
     11       3.1616      2.00000
     12       3.3461      2.00000
     13       4.0782      2.00000
     14       6.1483      2.00000
     15       6.3678      2.00000
     16       6.5688      1.99416
     17       6.6468      0.00584
     18       6.8038      0.00000
     19       6.9070      0.00000
     20       7.1689      0.00000
     21       7.3732      0.00000
     22       8.0414      0.00000
     23       8.9800      0.00000
     24       9.3803      0.00000
     25      10.4480      0.00000
     26      11.4529      0.00000
     27      13.5067      0.00000
     28      14.7690      0.00000
     29      16.5596      0.00000
     30      16.8918      0.00000
     31      17.3610      0.00000
     32      17.5911      0.00000
     33      17.9323      0.00000
     34      18.1333      0.00000
     35      18.4947      0.00000
     36      18.8783      0.00000
     37      19.3732      0.00000
     38      19.5070      0.00000
     39      19.8524      0.00000
     40      20.2542      0.00000
     41      21.1019      0.00000
     42      21.6884      0.00000
     43      22.1788      0.00000
     44      22.7704      0.00000
     45      23.9080      0.00000
     46      24.3942      0.00000
     47      24.8108      0.00000
     48      25.8321      0.00000


--------------------------------------------------------------------------------------------------------


 soft charge-density along one line, spin component           1
         0         1         2         3         4         5         6         7         8         9
 total charge-density along one line
 
 pseudopotential strength for first ion, spin component:           1
 18.662   0.000   0.000   0.000   0.000   0.000   0.000   0.000
  0.000   0.006   0.000   0.000   0.000   0.000   0.000   0.000
  0.000   0.000   4.216   0.000   0.000  -0.004   0.000   0.000
  0.000   0.000   0.000   4.216   0.000   0.000  -0.004   0.000
  0.000   0.000   0.000   0.000   4.216   0.000   0.000  -0.004
  0.000   0.000  -0.004   0.000   0.000   0.005   0.000   0.000
  0.000   0.000   0.000  -0.004   0.000   0.000   0.005   0.000
  0.000   0.000   0.000   0.000  -0.004   0.000   0.000   0.005
 total augmentation occupancy for first ion, spin component:           1
  2.000   0.000   0.000   0.000   0.000   0.000   0.000   0.000
  0.000   0.000   0.000   0.000   0.000   0.000   0.000   0.000
  0.000   0.000   0.667   0.000   0.000   0.000   0.000   0.000
  0.000   0.000   0.000   0.667   0.000   0.000   0.000   0.000
  0.000   0.000   0.000   0.000   0.667   0.000   0.000   0.000
  0.000   0.000   0.000   0.000   0.000   0.000   0.000   0.000
  0.000   0.000   0.000   0.000   0.000   0.000   0.000   0.000
  0.000   0.000   0.000   0.000   0.000   0.000   0.000   0.000


----------------------------------------- Iteration    1(   2)  ---------------------------------------


     EDDAV:  cpu time    0.96: real time    0.97
       DOS:  cpu time    0.00: real time    0.00
    --------------------------------------------
      LOOP:  cpu time    0.97: real time    0.97

 eigenvalue-minimisations  :   144
 total energy-change (2. order) :-0.2434325E+02  (-0.2433768E+02)
 number of electron      32.0000000 magnetization 
 augmentation part       32.0000000 magnetization 

 Free energy of the ion-electron system (eV)
  ---------------------------------------------------
  alpha Z        PSCENC =        12.68944982
  Ewald energy   TEWEN  =      -907.56617001
  -1/2 Hartree   DENC   =       -45.63656458
  -exchange  EXHF       =         0.00000000
  -V(xc)+E(xc)   XCENC  =       -76.79670866
  PAW double counting   =       265.93453375     -123.69690146
  entropy T*S    EENTRO =         0.00000000
  eigenvalues    EBANDS =        14.24816055
  atomic energy  EATOM  =       826.37398168
  ---------------------------------------------------
  free energy    TOTEN  =       -34.45021890 eV

  energy without entropy =      -34.45021890  energy(sigma->0) =      -34.45021890


--------------------------------------------------------------------------------------------------------




 average (electrostatic) potential at core
  the test charge radii are     0.9892
  (the norm of the test charge is              1.0000)
       1 -84.3521       2 -84.3523       3 -84.3449       4 -84.3525       5 -84.3487
       6 -84.3515       7 -84.3569       8 -84.3463
 
 
 
 E-fermi :   5.2460     XC(G=0):  -9.5533     alpha+bet :-11.7379


 k-point   1 :       0.0000    0.0000    0.0000
  band No.  band energies     occupation 
      1      -6.6372      2.00000
      2      -2.6492      2.00000
      3      -2.6417      2.00000
      4      -2.6302      2.00000
      5      -2.6240      2.00000
      6      -2.6187      2.00000
      7      -2.6113      2.00000
      8       2.3723      2.00000
      9       2.3750      2.00000
     10       2.3796      2.00000
     11       2.3862      2.00000
     12       2.3879      2.00000
     13       2.3950      2.00000
     14       5.0631      2.00000
     15       5.0778      2.00000
     16       5.0995      2.00000
     17       6.1401      0.00000
     18       6.1523      0.00000
     19       6.1547      0.00000
     20       6.1605      0.00000
     21       6.1627      0.00000
     22       6.1692      0.00000
     23       7.8439      0.00000
     24       7.8609      0.00000
     25       7.8667      0.00000
     26       8.1266      0.00000
     27      13.2004      0.00000
     28      13.2621      0.00000
     29      13.2699      0.00000
     30      15.1014      0.00000
     31      15.1313      0.00000
     32      15.1655      0.00000
     33      15.2505      0.00000
     34      15.3141      0.00000
     35      15.6402      0.00000
     36      16.3825      0.00000
     37      16.4267      0.00000
     38      16.4386      0.00000
     39      16.5417      0.00000
     40      16.7166      0.00000
     41      16.7534      0.00000
     42      16.7677      0.00000
     43      16.8714      0.00000
     44      17.2417      0.00000
     45      17.9176      0.00000
     46      17.9654      0.00000
     47      17.9951      0.00000
     48      18.0103      0.00000


--------------------------------------------------------------------------------------------------------


 soft charge-density along one line, spin component           1
         0         1         2         3         4         5         6         7         8         9
 total charge-density along one line
 
 pseudopotential strength for first ion, spin component:           1
 18.662   0.000   0.000   0.000   0.000   0.000   0.000   0.000
  0.000   0.006   0.000   0.000   0.000   0.000   0.000   0.000
  0.000   0.000   4.216   0.000   0.000  -0.004   0.000   0.000
  0.000   0.000   0.000   4.216   0.000   0.000  -0.004   0.000
  0.000   0.000   0.000   0.000   4.216   0.000   0.000  -0.004
  0.000   0.000  -0.004   0.000   0.000   0.005   0.000   0.000
  0.000   0.000   0.000  -0.004   0.000   0.000   0.005   0.000
  0.000   0.000   0.000   0.000  -0.004   0.000   0.000   0.005
 total augmentation occupancy for first ion, spin component:           1
  2.000   0.000   0.000   0.000   0.000   0.000   0.000   0.000
  0.000   0.000   0.000   0.000   0.000   0.000   0.000   0.000
  0.000   0.000   0.667   0.000   0.000   0.000   0.000   0.000
  0.000   0.000   0.000   0.667   0.000   0.000   0.000   0.000
  0.000   0.000   0.000   0.000   0.667   0.000   0.000   0.000
  0.000   0.000   0.000   0.000   0.000   0.000   0.000   0.000
  0.000   0.000   0.000   0.000   0.000   0.000   0.000   0.000
  0.000   0.000   0.000   0.000   0.000   0.000   0.000   0.000


----------------------------------------- Iteration    1(   3)  ---------------------------------------


     EDDAV:  cpu time    0.39: real time    0.39
       DOS:  cpu time    0.00: real time    0.00
    --------------------------------------------
      LOOP:  cpu time    0.39: real time    0.39

 eigenvalue-minimisations  :    96
 total energy-change (2. order) :-0.1670356E+00  (-0.1670356E+00)
 number of electron      32.0000000 magnetization 
 augmentation part       32.0000000 magnetization 

 Free energy of the ion-electron system (eV)
  ---------------------------------------------------
  alpha Z        PSCENC =        12.68944982
  Ewald energy   TEWEN  =      -907.56617001
  -1/2 Hartree   DENC   =       -45.63656458
  -exchange  EXHF       =         0.00000000
  -V(xc)+E(xc)   XCENC  =       -76.79670866
  PAW double counting   =       265.93453375     -123.69690146
  entropy T*S    EENTRO =         0.00000000
  eigenvalues    EBANDS =        14.08112500
  atomic energy  EATOM  =       826.37398168
  ---------------------------------------------------
  free energy    TOTEN  =       -34.61725445 eV

  energy without entropy =      -34.61725445  energy(sigma->0) =      -34.61725445


--------------------------------------------------------------------------------------------------------




 average (electrostatic) potential at core
  the test charge radii are     0.9892
  (the norm of the test charge is              1.0000)
       1 -84.3521       2 -84.3523       3 -84.3449       4 -84.3525       5 -84.3487
       6 -84.3515       7 -84.3569       8 -84.3463
 
 
 
 E-fermi :   5.2240     XC(G=0):  -9.5533     alpha+bet :-11.7379


 k-point   1 :       0.0000    0.0000    0.0000
  band No.  band energies     occupation 
      1      -6.6372      2.00000
      2      -2.6513      2.00000
      3      -2.6433      2.00000
      4      -2.6320      2.00000
      5      -2.6261      2.00000
      6      -2.6211      2.00000
      7      -2.6144      2.00000
      8       2.3668      2.00000
      9       2.3732      2.00000
     10       2.3764      2.00000
     11       2.3821      2.00000
     12       2.3826      2.00000
     13       2.3850      2.00000
     14       5.0514      2.00000
     15       5.0590      2.00000
     16       5.0897      2.00000
     17       6.1367      0.00000
     18       6.1486      0.00000
     19       6.1510      0.00000
     20       6.1563      0.00000
     21       6.1598      0.00000
     22       6.1666      0.00000
     23       7.8368      0.00000
     24       7.8538      0.00000
     25       7.8580      0.00000
     26       8.1178      0.00000
     27      13.1845      0.00000
     28      13.1867      0.00000
     29      13.2693      0.00000
     30      15.0815      0.00000
     31      15.0858      0.00000
     32      15.0924      0.00000
     33      15.1133      0.00000
     34      15.1284      0.00000
     35      15.1855      0.00000
     36      16.3156      0.00000
     37      16.3277      0.00000
     38      16.3393      0.00000
     39      16.3698      0.00000
     40      16.4338      0.00000
     41      16.4939      0.00000
     42      16.7015      0.00000
     43      16.7211      0.00000
     44      16.8237      0.00000
     45      17.8874      0.00000
     46      17.9003      0.00000
     47      17.9179      0.00000
     48      17.9413      0.00000


--------------------------------------------------------------------------------------------------------


 soft charge-density along one line, spin component           1
         0         1         2         3         4         5         6         7         8         9
 total charge-density along one line
 
 pseudopotential strength for first ion, spin component:           1
 18.662   0.000   0.000   0.000   0.000   0.000   0.000   0.000
  0.000   0.006   0.000   0.000   0.000   0.000   0.000   0.000
  0.000   0.000   4.216   0.000   0.000  -0.004   0.000   0.000
  0.000   0.000   0.000   4.216   0.000   0.000  -0.004   0.000
  0.000   0.000   0.000   0.000   4.216   0.000   0.000  -0.004
  0.000   0.000  -0.004   0.000   0.000   0.005   0.000   0.000
  0.000   0.000   0.000  -0.004   0.000   0.000   0.005   0.000
  0.000   0.000   0.000   0.000  -0.004   0.000   0.000   0.005
 total augmentation occupancy for first ion, spin component:           1
  2.000   0.000   0.000   0.000   0.000   0.000   0.000   0.000
  0.000   0.000   0.000   0.000   0.000   0.000   0.000   0.000
  0.000   0.000   0.667   0.000   0.000   0.000   0.000   0.000
  0.000   0.000   0.000   0.667   0.000   0.000   0.000   0.000
  0.000   0.000   0.000   0.000   0.667   0.000   0.000   0.000
  0.000   0.000   0.000   0.000   0.000   0.000   0.000   0.000
  0.000   0.000   0.000   0.000   0.000   0.000   0.000   0.000
  0.000   0.000   0.000   0.000   0.000   0.000   0.000   0.000


----------------------------------------- Iteration    1(   4)  ---------------------------------------


     EDDAV:  cpu time    2.01: real time    2.01
       DOS:  cpu time    0.00: real time    0.00
    --------------------------------------------
      LOOP:  cpu time    2.01: real time    2.02

 eigenvalue-minimisations  :   192
 total energy-change (2. order) :-0.3541864E-03  (-0.3541864E-03)
 number of electron      32.0000000 magnetization 
 augmentation part       32.0000000 magnetization 

 Free energy of the ion-electron system (eV)
  ---------------------------------------------------
  alpha Z        PSCENC =        12.68944982
  Ewald energy   TEWEN  =      -907.56617001
  -1/2 Hartree   DENC   =       -45.63656458
  -exchange  EXHF       =         0.00000000
  -V(xc)+E(xc)   XCENC  =       -76.79670866
  PAW double counting   =       265.93453375     -123.69690146
  entropy T*S    EENTRO =         0.00000000
  eigenvalues    EBANDS =        14.08077082
  atomic energy  EATOM  =       826.37398168
  ---------------------------------------------------
  free energy    TOTEN  =       -34.61760864 eV

  energy without entropy =      -34.61760864  energy(sigma->0) =      -34.61760864


--------------------------------------------------------------------------------------------------------




 average (electrostatic) potential at core
  the test charge radii are     0.9892
  (the norm of the test charge is              1.0000)
       1 -84.3521       2 -84.3523       3 -84.3449       4 -84.3525       5 -84.3487
       6 -84.3515       7 -84.3569       8 -84.3463
 
 
 
 E-fermi :   5.2043     XC(G=0):  -9.5533     alpha+bet :-11.7379


 k-point   1 :       0.0000    0.0000    0.0000
  band No.  band energies     occupation 
      1      -6.6372      2.00000
      2      -2.6513      2.00000
      3      -2.6433      2.00000
      4      -2.6320      2.00000
      5      -2.6261      2.00000
      6      -2.6212      2.00000
      7      -2.6144      2.00000
      8       2.3668      2.00000
      9       2.3732      2.00000
     10       2.3764      2.00000
     11       2.3820      2.00000
     12       2.3826      2.00000
     13       2.3850      2.00000
     14       5.0514      2.00000
     15       5.0589      2.00000
     16       5.0897      2.00000
     17       6.1367      0.00000
     18       6.1486      0.00000
     19       6.1510      0.00000
     20       6.1563      0.00000
     21       6.1598      0.00000
     22       6.1666      0.00000
     23       7.8368      0.00000
     24       7.8537      0.00000
     25       7.8580      0.00000
     26       8.1178      0.00000
     27      13.1837      0.00000
     28      13.1838      0.00000
     29      13.2693      0.00000
     30      15.0758      0.00000
     31      15.0790      0.00000
     32      15.0823      0.00000
     33      15.0864      0.00000
     34      15.0888      0.00000
     35      15.0964      0.00000
     36      16.2916      0.00000
     37      16.3030      0.00000
     38      16.3092      0.00000
     39      16.3140      0.00000
     40      16.3177      0.00000
     41      16.3264      0.00000
     42      16.6902      0.00000
     43      16.7090      0.00000
     44      16.7139      0.00000
     45      17.8680      0.00000
     46      17.8719      0.00000
     47      17.8846      0.00000
     48      17.9005      0.00000


--------------------------------------------------------------------------------------------------------


 soft charge-density along one line, spin component           1
         0         1         2         3         4         5         6         7         8         9
 total charge-density along one line
 
 pseudopotential strength for first ion, spin component:           1
 18.662   0.000   0.000   0.000   0.000   0.000   0.000   0.000
  0.000   0.006   0.000   0.000   0.000   0.000   0.000   0.000
  0.000   0.000   4.216   0.000   0.000  -0.004   0.000   0.000
  0.000   0.000   0.000   4.216   0.000   0.000  -0.004   0.000
  0.000   0.000   0.000   0.000   4.216   0.000   0.000  -0.004
  0.000   0.000  -0.004   0.000   0.000   0.005   0.000   0.000
  0.000   0.000   0.000  -0.004   0.000   0.000   0.005   0.000
  0.000   0.000   0.000   0.000  -0.004   0.000   0.000   0.005
 total augmentation occupancy for first ion, spin component:           1
  2.000   0.000   0.000   0.000   0.000   0.000   0.000   0.000
  0.000   0.000   0.000   0.000   0.000   0.000   0.000   0.000
  0.000   0.000   0.667   0.000   0.000   0.000   0.000   0.000
  0.000   0.000   0.000   0.667   0.000   0.000   0.000   0.000
  0.000   0.000   0.000   0.000   0.667   0.000   0.000   0.000
  0.000   0.000   0.000   0.000   0.000   0.000   0.000   0.000
  0.000   0.000   0.000   0.000   0.000   0.000   0.000   0.000
  0.000   0.000   0.000   0.000   0.000   0.000   0.000   0.000


----------------------------------------- Iteration    1(   5)  ---------------------------------------


     EDDAV:  cpu time    0.39: real time    0.39
       DOS:  cpu time    0.00: real time    0.00
    CHARGE:  cpu time    0.02: real time    0.02
    MIXING:  cpu time    0.00: real time    0.00
    --------------------------------------------
      LOOP:  cpu time    0.42: real time    0.42

 eigenvalue-minimisations  :    96
 total energy-change (2. order) :-0.3029527E-08  (-0.3029942E-08)
 number of electron      31.9999999 magnetization 
 augmentation part       -1.8053367 magnetization 

 Broyden mixing:
  rms(total) = 0.79306E+00    rms(broyden)= 0.79301E+00
  rms(prec ) = 0.15229E+01
  weight for this iteration     100.00

 Free energy of the ion-electron system (eV)
  ---------------------------------------------------
  alpha Z        PSCENC =        12.68944982
  Ewald energy   TEWEN  =      -907.56617001
  -1/2 Hartree   DENC   =       -45.63656458
  -exchange  EXHF       =         0.00000000
  -V(xc)+E(xc)   XCENC  =       -76.79670866
  PAW double counting   =       265.93453375     -123.69690146
  entropy T*S    EENTRO =         0.00000000
  eigenvalues    EBANDS =        14.08077081
  atomic energy  EATOM  =       826.37398168
  ---------------------------------------------------
  free energy    TOTEN  =       -34.61760864 eV

  energy without entropy =      -34.61760864  energy(sigma->0) =      -34.61760864


--------------------------------------------------------------------------------------------------------




 average (electrostatic) potential at core
  the test charge radii are     0.9892
  (the norm of the test charge is              1.0000)
       1 -84.3521       2 -84.3523       3 -84.3449       4 -84.3525       5 -84.3487
       6 -84.3515       7 -84.3569       8 -84.3463
 
 
 
 E-fermi :   5.2009     XC(G=0):  -9.5533     alpha+bet :-11.7379


 k-point   1 :       0.0000    0.0000    0.0000
  band No.  band energies     occupation 
      1      -6.6372      2.00000
      2      -2.6513      2.00000
      3      -2.6433      2.00000
      4      -2.6320      2.00000
      5      -2.6261      2.00000
      6      -2.6212      2.00000
      7      -2.6144      2.00000
      8       2.3668      2.00000
      9       2.3732      2.00000
     10       2.3764      2.00000
     11       2.3820      2.00000
     12       2.3826      2.00000
     13       2.3850      2.00000
     14       5.0514      2.00000
     15       5.0589      2.00000
     16       5.0897      2.00000
     17       6.1367      0.00000
     18       6.1486      0.00000
     19       6.1510      0.00000
     20       6.1563      0.00000
     21       6.1598      0.00000
     22       6.1666      0.00000
     23       7.8368      0.00000
     24       7.8537      0.00000
     25       7.8580      0.00000
     26       8.1178      0.00000
     27      13.1837      0.00000
     28      13.1838      0.00000
     29      13.2693      0.00000
     30      15.0758      0.00000
     31      15.0790      0.00000
     32      15.0822      0.00000
     33      15.0863      0.00000
     34      15.0888      0.00000
     35      15.0963      0.00000
     36      16.2912      0.00000
     37      16.3024      0.00000
     38      16.3091      0.00000
     39      16.3139      0.00000
     40      16.3174      0.00000
     41      16.3260      0.00000
     42      16.6901      0.00000
     43      16.7090      0.00000
     44      16.7137      0.00000
     45      17.8611      0.00000
     46      17.8646      0.00000
     47      17.8781      0.00000
     48      17.8934      0.00000


--------------------------------------------------------------------------------------------------------


 soft charge-density along one line, spin component           1
         0         1         2         3         4         5         6         7         8         9
 total charge-density along one line
 
 pseudopotential strength for first ion, spin component:           1
 18.662   0.000   0.000   0.000   0.000   0.000   0.000   0.000
  0.000   0.006   0.000   0.000   0.000   0.000   0.000   0.000
  0.000   0.000   4.216   0.000   0.000  -0.004   0.000   0.000
  0.000   0.000   0.000   4.216   0.000   0.000  -0.004   0.000
  0.000   0.000   0.000   0.000   4.216   0.000   0.000  -0.004
  0.000   0.000  -0.004   0.000   0.000   0.005   0.000   0.000
  0.000   0.000   0.000  -0.004   0.000   0.000   0.005   0.000
  0.000   0.000   0.000   0.000  -0.004   0.000   0.000   0.005
 total augmentation occupancy for first ion, spin component:           1
  1.380  -1.052  -0.001   0.001   0.001   0.002  -0.001  -0.001
 -1.052   0.920   0.002   0.000  -0.002  -0.002   0.001   0.002
 -0.001   0.002   1.165   0.001   0.001  -0.759  -0.002  -0.001
  0.001   0.000   0.001   1.167  -0.001  -0.002  -0.760   0.003
  0.001  -0.002   0.001  -0.001   1.162  -0.001   0.003  -0.757
  0.002  -0.002  -0.759  -0.002  -0.001   0.570   0.002   0.002
 -0.001   0.001  -0.002  -0.760   0.003   0.002   0.571  -0.003
 -0.001   0.002  -0.001   0.003  -0.757   0.002  -0.003   0.569


----------------------------------------- Iteration    1(   6)  ---------------------------------------


    POTLOK:  cpu time    0.02: real time    0.02
    SETDIJ:  cpu time    0.02: real time    0.02
    EDDIAG:  cpu time    0.03: real time    0.03
  RMM-DIIS:  cpu time    0.02: real time    0.02
    ORTHCH:  cpu time    0.01: real time    0.01
       DOS:  cpu time    0.00: real time    0.00
    CHARGE:  cpu time    0.02: real time    0.02
    MIXING:  cpu time    0.00: real time    0.00
    --------------------------------------------
      LOOP:  cpu time    0.13: real time    0.13

 eigenvalue-minimisations  :    96
 total energy-change (2. order) : 0.1001732E+01  (-0.3198291E-01)
 number of electron      31.9999999 magnetization 
 augmentation part       -1.7684081 magnetization 

 Broyden mixing:
  rms(total) = 0.47400E+00    rms(broyden)= 0.47400E+00
  rms(prec ) = 0.91067E+00
  weight for this iteration     100.00

 eigenvalues of (default mixing * dielectric matrix)
  average eigenvalue GAMMA=   2.4573
  2.4573

 Free energy of the ion-electron system (eV)
  ---------------------------------------------------
  alpha Z        PSCENC =        12.68944982
  Ewald energy   TEWEN  =      -907.56617001
  -1/2 Hartree   DENC   =       -54.68314726
  -exchange  EXHF       =         0.00000000
  -V(xc)+E(xc)   XCENC  =       -75.44939856
  PAW double counting   =       286.06090014     -144.35921511
  entropy T*S    EENTRO =         0.00000000
  eigenvalues    EBANDS =        23.31772289
  atomic energy  EATOM  =       826.37398168
  ---------------------------------------------------
  free energy    TOTEN  =       -33.61587641 eV

  energy without entropy =      -33.61587641  energy(sigma->0) =      -33.61587641


--------------------------------------------------------------------------------------------------------




 average (electrostatic) potential at core
  the test charge radii are     0.9892
  (the norm of the test charge is              1.0000)
       1 -83.8336       2 -83.8336       3 -83.8300       4 -83.8337       5 -83.8319
       6 -83.8332       7 -83.8359       8 -83.8307
 
 
 
 E-fermi :   5.5625     XC(G=0):  -9.4504     alpha+bet :-11.7379


 k-point   1 :       0.0000    0.0000    0.0000
  band No.  band energies     occupation 
      1      -6.3788      2.00000
      2      -2.3503      2.00000
      3      -2.3438      2.00000
      4      -2.3332      2.00000
      5      -2.3268      2.00000
      6      -2.3233      2.00000
      7      -2.3175      2.00000
      8       2.6289      2.00000
      9       2.6346      2.00000
     10       2.6376      2.00000
     11       2.6425      2.00000
     12       2.6432      2.00000
     13       2.6455      2.00000
     14       5.3851      2.00000
     15       5.3925      2.00000
     16       5.4226      2.00000
     17       6.2523      0.00000
     18       6.2630      0.00000
     19       6.2661      0.00000
     20       6.2703      0.00000
     21       6.2740      0.00000
     22       6.2800      0.00000
     23       8.0439      0.00000
     24       8.0612      0.00000
     25       8.0655      0.00000
     26       8.4862      0.00000
     27      13.3050      0.00000
     28      13.3569      0.00000
     29      13.3569      0.00000
     30      15.3728      0.00000
     31      15.3755      0.00000
     32      15.3782      0.00000
     33      15.3824      0.00000
     34      15.3845      0.00000
     35      15.3920      0.00000
     36      16.5286      0.00000
     37      16.5390      0.00000
     38      16.5450      0.00000
     39      16.5494      0.00000
     40      16.5526      0.00000
     41      16.5603      0.00000
     42      16.7346      0.00000
     43      16.7537      0.00000
     44      16.7584      0.00000
     45      18.1504      0.00000
     46      18.1547      0.00000
     47      18.1679      0.00000
     48      18.1792      0.00000


--------------------------------------------------------------------------------------------------------


 soft charge-density along one line, spin component           1
         0         1         2         3         4         5         6         7         8         9
 total charge-density along one line
 
 pseudopotential strength for first ion, spin component:           1
 18.635  -0.001   0.000   0.000   0.000   0.000   0.000   0.000
 -0.001   0.006   0.000   0.000   0.000   0.000   0.000   0.000
  0.000   0.000   4.221   0.000   0.000  -0.004   0.000   0.000
  0.000   0.000   0.000   4.221   0.000   0.000  -0.004   0.000
  0.000   0.000   0.000   0.000   4.221   0.000   0.000  -0.004
  0.000   0.000  -0.004   0.000   0.000   0.005   0.000   0.000
  0.000   0.000   0.000  -0.004   0.000   0.000   0.005   0.000
  0.000   0.000   0.000   0.000  -0.004   0.000   0.000   0.005
 total augmentation occupancy for first ion, spin component:           1
  1.351  -1.091  -0.001   0.001   0.001   0.002  -0.001  -0.002
 -1.091   0.998   0.002   0.000  -0.001  -0.002   0.000   0.002
 -0.001   0.002   1.147   0.001   0.001  -0.783  -0.002  -0.001
  0.001   0.000   0.001   1.149  -0.001  -0.002  -0.784   0.002
  0.001  -0.001   0.001  -0.001   1.144  -0.002   0.003  -0.780
  0.002  -0.002  -0.783  -0.002  -0.002   0.609   0.002   0.002
 -0.001   0.000  -0.002  -0.784   0.003   0.002   0.609  -0.003
 -0.002   0.002  -0.001   0.002  -0.780   0.002  -0.003   0.607


----------------------------------------- Iteration    1(   7)  ---------------------------------------


    POTLOK:  cpu time    0.02: real time    0.02
    SETDIJ:  cpu time    0.01: real time    0.02
    EDDIAG:  cpu time    0.02: real time    0.02
  RMM-DIIS:  cpu time    0.04: real time    0.04
    ORTHCH:  cpu time    0.01: real time    0.01
       DOS:  cpu time    0.00: real time    0.00
    CHARGE:  cpu time    0.02: real time    0.02
    MIXING:  cpu time    0.00: real time    0.00
    --------------------------------------------
      LOOP:  cpu time    0.13: real time    0.13

 eigenvalue-minimisations  :    96
 total energy-change (2. order) : 0.4246780E+00  (-0.7388881E-01)
 number of electron      31.9999999 magnetization 
 augmentation part       -1.7214528 magnetization 

 Broyden mixing:
  rms(total) = 0.46247E-01    rms(broyden)= 0.46237E-01
  rms(prec ) = 0.78451E-01
  weight for this iteration     100.00

 eigenvalues of (default mixing * dielectric matrix)
  average eigenvalue GAMMA=   2.5300
  2.5300  2.5300

 Free energy of the ion-electron system (eV)
  ---------------------------------------------------
  alpha Z        PSCENC =        12.68944982
  Ewald energy   TEWEN  =      -907.56617001
  -1/2 Hartree   DENC   =       -70.51434209
  -exchange  EXHF       =         0.00000000
  -V(xc)+E(xc)   XCENC  =       -73.00923195
  PAW double counting   =       313.72547324     -172.73750832
  entropy T*S    EENTRO =         0.00000000
  eigenvalues    EBANDS =        37.84714924
  atomic energy  EATOM  =       826.37398168
  ---------------------------------------------------
  free energy    TOTEN  =       -33.19119839 eV

  energy without entropy =      -33.19119839  energy(sigma->0) =      -33.19119839


--------------------------------------------------------------------------------------------------------




 average (electrostatic) potential at core
  the test charge radii are     0.9892
  (the norm of the test charge is              1.0000)
       1 -83.1461       2 -83.1456       3 -83.1437       4 -83.1461       5 -83.1451
       6 -83.1460       7 -83.1473       8 -83.1444
 
 
 
 E-fermi :   6.0962     XC(G=0):  -9.2018     alpha+bet :-11.7379


 k-point   1 :       0.0000    0.0000    0.0000
  band No.  band energies     occupation 
      1      -5.9621      2.00000
      2      -1.8820      2.00000
      3      -1.8768      2.00000
      4      -1.8669      2.00000
      5      -1.8601      2.00000
      6      -1.8575      2.00000
      7      -1.8527      2.00000
      8       3.0425      2.00000
      9       3.0477      2.00000
     10       3.0504      2.00000
     11       3.0542      2.00000
     12       3.0553      2.00000
     13       3.0577      2.00000
     14       5.9101      2.00000
     15       5.9173      2.00000
     16       5.9466      2.00000
     17       6.5120      0.00000
     18       6.5211      0.00000
     19       6.5250      0.00000
     20       6.5284      0.00000
     21       6.5321      0.00000
     22       6.5372      0.00000
     23       8.3688      0.00000
     24       8.3864      0.00000
     25       8.3908      0.00000
     26       9.0452      0.00000
     27      13.6013      0.00000
     28      13.6204      0.00000
     29      13.6204      0.00000
     30      15.8237      0.00000
     31      15.8256      0.00000
     32      15.8280      0.00000
     33      15.8324      0.00000
     34      15.8343      0.00000
     35      15.8412      0.00000
     36      16.8886      0.00000
     37      16.9078      0.00000
     38      16.9126      0.00000
     39      16.9500      0.00000
     40      16.9596      0.00000
     41      16.9643      0.00000
     42      16.9686      0.00000
     43      16.9715      0.00000
     44      16.9782      0.00000
     45      18.6502      0.00000
     46      18.6564      0.00000
     47      18.6693      0.00000
     48      18.6740      0.00000


--------------------------------------------------------------------------------------------------------


 soft charge-density along one line, spin component           1
         0         1         2         3         4         5         6         7         8         9
 total charge-density along one line
 
 pseudopotential strength for first ion, spin component:           1
 18.596  -0.001   0.000   0.000   0.000   0.000   0.000   0.000
 -0.001   0.006   0.000   0.000   0.000   0.000   0.000   0.000
  0.000   0.000   4.227   0.000   0.000  -0.005   0.000   0.000
  0.000   0.000   0.000   4.227   0.000   0.000  -0.005   0.000
  0.000   0.000   0.000   0.000   4.227   0.000   0.000  -0.005
  0.000   0.000  -0.005   0.000   0.000   0.005   0.000   0.000
  0.000   0.000   0.000  -0.005   0.000   0.000   0.005   0.000
  0.000   0.000   0.000   0.000  -0.005   0.000   0.000   0.005
 total augmentation occupancy for first ion, spin component:           1
  1.315  -1.113   0.000   0.001   0.001   0.002  -0.001  -0.002
 -1.113   1.059   0.002   0.000  -0.002  -0.003   0.001   0.002
  0.000   0.002   1.123   0.001   0.000  -0.806  -0.002  -0.001
  0.001   0.000   0.001   1.124  -0.001  -0.002  -0.807   0.002
  0.001  -0.002   0.000  -0.001   1.120  -0.001   0.002  -0.803
  0.002  -0.003  -0.806  -0.002  -0.001   0.652   0.002   0.002
 -0.001   0.001  -0.002  -0.807   0.002   0.002   0.653  -0.003
 -0.002   0.002  -0.001   0.002  -0.803   0.002  -0.003   0.651


----------------------------------------- Iteration    1(   8)  ---------------------------------------


    POTLOK:  cpu time    0.02: real time    0.02
    SETDIJ:  cpu time    0.02: real time    0.02
    EDDIAG:  cpu time    0.02: real time    0.02
  RMM-DIIS:  cpu time    0.03: real time    0.03
    ORTHCH:  cpu time    0.01: real time    0.01
       DOS:  cpu time    0.00: real time    0.00
    CHARGE:  cpu time    0.02: real time    0.02
    MIXING:  cpu time    0.00: real time    0.00
    --------------------------------------------
      LOOP:  cpu time    0.12: real time    0.13

 eigenvalue-minimisations  :    96
 total energy-change (2. order) :-0.3198167E-01  (-0.2161374E-02)
 number of electron      31.9999999 magnetization 
 augmentation part       -1.7275451 magnetization 

 Broyden mixing:
  rms(total) = 0.74888E-02    rms(broyden)= 0.74883E-02
  rms(prec ) = 0.17954E-01
  weight for this iteration     100.00

 eigenvalues of (default mixing * dielectric matrix)
  average eigenvalue GAMMA=   2.1216
  1.2752  2.8654  2.2241

 Free energy of the ion-electron system (eV)
  ---------------------------------------------------
  alpha Z        PSCENC =        12.68944982
  Ewald energy   TEWEN  =      -907.56617001
  -1/2 Hartree   DENC   =       -70.39953642
  -exchange  EXHF       =         0.00000000
  -V(xc)+E(xc)   XCENC  =       -72.96564780
  PAW double counting   =       307.36481781     -166.19208975
  entropy T*S    EENTRO =         0.00000000
  eigenvalues    EBANDS =        37.47201461
  atomic energy  EATOM  =       826.37398168
  ---------------------------------------------------
  free energy    TOTEN  =       -33.22318007 eV

  energy without entropy =      -33.22318007  energy(sigma->0) =      -33.22318007


--------------------------------------------------------------------------------------------------------




 average (electrostatic) potential at core
  the test charge radii are     0.9892
  (the norm of the test charge is              1.0000)
       1 -83.2495       2 -83.2494       3 -83.2441       4 -83.2498       5 -83.2471
       6 -83.2492       7 -83.2531       8 -83.2453
 
 
 
 E-fermi :   6.0350     XC(G=0):  -9.1504     alpha+bet :-11.7379


 k-point   1 :       0.0000    0.0000    0.0000
  band No.  band energies     occupation 
      1      -5.9632      2.00000
      2      -1.8948      2.00000
      3      -1.8887      2.00000
      4      -1.8783      2.00000
      5      -1.8719      2.00000
      6      -1.8685      2.00000
      7      -1.8633      2.00000
      8       3.0304      2.00000
      9       3.0362      2.00000
     10       3.0389      2.00000
     11       3.0429      2.00000
     12       3.0440      2.00000
     13       3.0465      2.00000
     14       5.8939      2.00000
     15       5.9012      2.00000
     16       5.9306      2.00000
     17       6.5624      0.00000
     18       6.5719      0.00000
     19       6.5758      0.00000
     20       6.5795      0.00000
     21       6.5832      0.00000
     22       6.5885      0.00000
     23       8.3582      0.00000
     24       8.3757      0.00000
     25       8.3801      0.00000
     26       9.0381      0.00000
     27      13.6065      0.00000
     28      13.6065      0.00000
     29      13.7783      0.00000
     30      15.8089      0.00000
     31      15.8108      0.00000
     32      15.8136      0.00000
     33      15.8177      0.00000
     34      15.8199      0.00000
     35      15.8266      0.00000
     36      16.9254      0.00000
     37      16.9435      0.00000
     38      16.9484      0.00000
     39      16.9571      0.00000
     40      16.9662      0.00000
     41      16.9709      0.00000
     42      16.9754      0.00000
     43      16.9786      0.00000
     44      16.9853      0.00000
     45      18.6875      0.00000
     46      18.6942      0.00000
     47      18.7061      0.00000
     48      18.7116      0.00000


--------------------------------------------------------------------------------------------------------


 soft charge-density along one line, spin component           1
         0         1         2         3         4         5         6         7         8         9
 total charge-density along one line
 
 pseudopotential strength for first ion, spin component:           1
 18.599  -0.001   0.000   0.000   0.000   0.000   0.000   0.000
 -0.001   0.006   0.000   0.000   0.000   0.000   0.000   0.000
  0.000   0.000   4.224   0.000   0.000  -0.005   0.000   0.000
  0.000   0.000   0.000   4.224   0.000   0.000  -0.005   0.000
  0.000   0.000   0.000   0.000   4.224   0.000   0.000  -0.005
  0.000   0.000  -0.005   0.000   0.000   0.005   0.000   0.000
  0.000   0.000   0.000  -0.005   0.000   0.000   0.005   0.000
  0.000   0.000   0.000   0.000  -0.005   0.000   0.000   0.005
 total augmentation occupancy for first ion, spin component:           1
  1.320  -1.093  -0.001   0.001   0.001   0.002  -0.001  -0.001
 -1.093   1.021   0.002   0.000  -0.002  -0.002   0.001   0.002
 -0.001   0.002   1.124   0.001   0.000  -0.801  -0.002  -0.001
  0.001   0.000   0.001   1.125  -0.001  -0.002  -0.802   0.002
  0.001  -0.002   0.000  -0.001   1.121  -0.001   0.002  -0.799
  0.002  -0.002  -0.801  -0.002  -0.001   0.648   0.002   0.002
 -0.001   0.001  -0.002  -0.802   0.002   0.002   0.648  -0.003
 -0.001   0.002  -0.001   0.002  -0.799   0.002  -0.003   0.646


----------------------------------------- Iteration    1(   9)  ---------------------------------------


    POTLOK:  cpu time    0.02: real time    0.02
    SETDIJ:  cpu time    0.01: real time    0.02
    EDDIAG:  cpu time    0.02: real time    0.02
  RMM-DIIS:  cpu time    0.04: real time    0.05
    ORTHCH:  cpu time    0.01: real time    0.01
       DOS:  cpu time    0.00: real time    0.00
    CHARGE:  cpu time    0.02: real time    0.02
    MIXING:  cpu time    0.00: real time    0.00
    --------------------------------------------
      LOOP:  cpu time    0.13: real time    0.14

 eigenvalue-minimisations  :   105
 total energy-change (2. order) :-0.1134842E-02  (-0.1266202E-03)
 number of electron      31.9999999 magnetization 
 augmentation part       -1.7274633 magnetization 

 Broyden mixing:
  rms(total) = 0.41750E-02    rms(broyden)= 0.41749E-02
  rms(prec ) = 0.68394E-02
  weight for this iteration     100.00

 eigenvalues of (default mixing * dielectric matrix)
  average eigenvalue GAMMA=   2.2934
  0.9870  3.2219  2.6750  2.2895

 Free energy of the ion-electron system (eV)
  ---------------------------------------------------
  alpha Z        PSCENC =        12.68944982
  Ewald energy   TEWEN  =      -907.56617001
  -1/2 Hartree   DENC   =       -70.79641229
  -exchange  EXHF       =         0.00000000
  -V(xc)+E(xc)   XCENC  =       -72.90638307
  PAW double counting   =       307.71610951     -166.55379953
  entropy T*S    EENTRO =         0.00000000
  eigenvalues    EBANDS =        37.81890899
  atomic energy  EATOM  =       826.37398168
  ---------------------------------------------------
  free energy    TOTEN  =       -33.22431491 eV

  energy without entropy =      -33.22431491  energy(sigma->0) =      -33.22431491


--------------------------------------------------------------------------------------------------------




 average (electrostatic) potential at core
  the test charge radii are     0.9892
  (the norm of the test charge is              1.0000)
       1 -83.2350       2 -83.2351       3 -83.2309       4 -83.2352       5 -83.2332
       6 -83.2347       7 -83.2377       8 -83.2317
 
 
 
 E-fermi :   6.0496     XC(G=0):  -9.1362     alpha+bet :-11.7379


 k-point   1 :       0.0000    0.0000    0.0000
  band No.  band energies     occupation 
      1      -5.9519      2.00000
      2      -1.8832      2.00000
      3      -1.8774      2.00000
      4      -1.8672      2.00000
      5      -1.8607      2.00000
      6      -1.8576      2.00000
      7      -1.8525      2.00000
      8       3.0405      2.00000
      9       3.0461      2.00000
     10       3.0487      2.00000
     11       3.0527      2.00000
     12       3.0537      2.00000
     13       3.0562      2.00000
     14       5.9061      2.00000
     15       5.9133      2.00000
     16       5.9426      2.00000
     17       6.5764      0.00000
     18       6.5860      0.00000
     19       6.5898      0.00000
     20       6.5935      0.00000
     21       6.5972      0.00000
     22       6.6026      0.00000
     23       8.3659      0.00000
     24       8.3834      0.00000
     25       8.3877      0.00000
     26       9.0526      0.00000
     27      13.6117      0.00000
     28      13.6117      0.00000
     29      13.8106      0.00000
     30      15.8194      0.00000
     31      15.8214      0.00000
     32      15.8240      0.00000
     33      15.8282      0.00000
     34      15.8303      0.00000
     35      15.8372      0.00000
     36      16.9355      0.00000
     37      16.9537      0.00000
     38      16.9586      0.00000
     39      16.9691      0.00000
     40      16.9784      0.00000
     41      16.9830      0.00000
     42      16.9874      0.00000
     43      16.9906      0.00000
     44      16.9973      0.00000
     45      18.7054      0.00000
     46      18.7124      0.00000
     47      18.7241      0.00000
     48      18.7299      0.00000


--------------------------------------------------------------------------------------------------------


 soft charge-density along one line, spin component           1
         0         1         2         3         4         5         6         7         8         9
 total charge-density along one line
 
 pseudopotential strength for first ion, spin component:           1
 18.598  -0.001   0.000   0.000   0.000   0.000   0.000   0.000
 -0.001   0.006   0.000   0.000   0.000   0.000   0.000   0.000
  0.000   0.000   4.224   0.000   0.000  -0.005   0.000   0.000
  0.000   0.000   0.000   4.224   0.000   0.000  -0.005   0.000
  0.000   0.000   0.000   0.000   4.224   0.000   0.000  -0.005
  0.000   0.000  -0.005   0.000   0.000   0.005   0.000   0.000
  0.000   0.000   0.000  -0.005   0.000   0.000   0.005   0.000
  0.000   0.000   0.000   0.000  -0.005   0.000   0.000   0.005
 total augmentation occupancy for first ion, spin component:           1
  1.320  -1.087  -0.001   0.001   0.001   0.002  -0.001  -0.001
 -1.087   1.013   0.002   0.000  -0.002  -0.002   0.001   0.002
 -0.001   0.002   1.123   0.001   0.000  -0.801  -0.002  -0.001
  0.001   0.000   0.001   1.125  -0.001  -0.002  -0.802   0.002
  0.001  -0.002   0.000  -0.001   1.121  -0.001   0.002  -0.799
  0.002  -0.002  -0.801  -0.002  -0.001   0.648   0.002   0.002
 -0.001   0.001  -0.002  -0.802   0.002   0.002   0.648  -0.003
 -0.001   0.002  -0.001   0.002  -0.799   0.002  -0.003   0.646


----------------------------------------- Iteration    1(  10)  ---------------------------------------


    POTLOK:  cpu time    0.02: real time    0.02
    SETDIJ:  cpu time    0.02: real time    0.02
    EDDIAG:  cpu time    0.02: real time    0.02
  RMM-DIIS:  cpu time    0.05: real time    0.05
    ORTHCH:  cpu time    0.01: real time    0.01
       DOS:  cpu time    0.00: real time    0.00
    CHARGE:  cpu time    0.02: real time    0.02
    MIXING:  cpu time    0.00: real time    0.00
    --------------------------------------------
      LOOP:  cpu time    0.14: real time    0.14

 eigenvalue-minimisations  :   104
 total energy-change (2. order) :-0.1842328E-03  (-0.2360764E-04)
 number of electron      31.9999999 magnetization 
 augmentation part       -1.7273461 magnetization 

 Broyden mixing:
  rms(total) = 0.43326E-03    rms(broyden)= 0.43280E-03
  rms(prec ) = 0.88143E-03
  weight for this iteration     100.00

 eigenvalues of (default mixing * dielectric matrix)
  average eigenvalue GAMMA=   2.0378
  3.0899  2.6255  2.1633  0.9777  1.3325

 Free energy of the ion-electron system (eV)
  ---------------------------------------------------
  alpha Z        PSCENC =        12.68944982
  Ewald energy   TEWEN  =      -907.56617001
  -1/2 Hartree   DENC   =       -70.84724069
  -exchange  EXHF       =         0.00000000
  -V(xc)+E(xc)   XCENC  =       -72.90949271
  PAW double counting   =       307.80248608     -166.64626847
  entropy T*S    EENTRO =         0.00000000
  eigenvalues    EBANDS =        37.87875517
  atomic energy  EATOM  =       826.37398168
  ---------------------------------------------------
  free energy    TOTEN  =       -33.22449914 eV

  energy without entropy =      -33.22449914  energy(sigma->0) =      -33.22449914


--------------------------------------------------------------------------------------------------------




 average (electrostatic) potential at core
  the test charge radii are     0.9892
  (the norm of the test charge is              1.0000)
       1 -83.2263       2 -83.2264       3 -83.2233       4 -83.2265       5 -83.2250
       6 -83.2261       7 -83.2284       8 -83.2239
 
 
 
 E-fermi :   6.0540     XC(G=0):  -9.1308     alpha+bet :-11.7379


 k-point   1 :       0.0000    0.0000    0.0000
  band No.  band energies     occupation 
      1      -5.9496      2.00000
      2      -1.8809      2.00000
      3      -1.8754      2.00000
      4      -1.8652      2.00000
      5      -1.8586      2.00000
      6      -1.8558      2.00000
      7      -1.8507      2.00000
      8       3.0422      2.00000
      9       3.0477      2.00000
     10       3.0503      2.00000
     11       3.0543      2.00000
     12       3.0553      2.00000
     13       3.0577      2.00000
     14       5.9081      2.00000
     15       5.9154      2.00000
     16       5.9446      2.00000
     17       6.5816      0.00000
     18       6.5912      0.00000
     19       6.5950      0.00000
     20       6.5987      0.00000
     21       6.6024      0.00000
     22       6.6078      0.00000
     23       8.3668      0.00000
     24       8.3843      0.00000
     25       8.3886      0.00000
     26       9.0562      0.00000
     27      13.6117      0.00000
     28      13.6117      0.00000
     29      13.8262      0.00000
     30      15.8212      0.00000
     31      15.8232      0.00000
     32      15.8258      0.00000
     33      15.8300      0.00000
     34      15.8320      0.00000
     35      15.8390      0.00000
     36      16.9394      0.00000
     37      16.9576      0.00000
     38      16.9624      0.00000
     39      16.9720      0.00000
     40      16.9810      0.00000
     41      16.9856      0.00000
     42      16.9900      0.00000
     43      16.9931      0.00000
     44      16.9997      0.00000
     45      18.7125      0.00000
     46      18.7191      0.00000
     47      18.7316      0.00000
     48      18.7365      0.00000


--------------------------------------------------------------------------------------------------------


 soft charge-density along one line, spin component           1
         0         1         2         3         4         5         6         7         8         9
 total charge-density along one line
 
 pseudopotential strength for first ion, spin component:           1
 18.597  -0.001   0.000   0.000   0.000   0.000   0.000   0.000
 -0.001   0.006   0.000   0.000   0.000   0.000   0.000   0.000
  0.000   0.000   4.224   0.000   0.000  -0.005   0.000   0.000
  0.000   0.000   0.000   4.224   0.000   0.000  -0.005   0.000
  0.000   0.000   0.000   0.000   4.224   0.000   0.000  -0.005
  0.000   0.000  -0.005   0.000   0.000   0.005   0.000   0.000
  0.000   0.000   0.000  -0.005   0.000   0.000   0.005   0.000
  0.000   0.000   0.000   0.000  -0.005   0.000   0.000   0.005
 total augmentation occupancy for first ion, spin component:           1
  1.320  -1.087  -0.001   0.001   0.001   0.002  -0.001  -0.001
 -1.087   1.013   0.002   0.000  -0.002  -0.002   0.001   0.002
 -0.001   0.002   1.123   0.001   0.000  -0.802  -0.002  -0.001
  0.001   0.000   0.001   1.124  -0.001  -0.002  -0.803   0.002
  0.001  -0.002   0.000  -0.001   1.120  -0.001   0.002  -0.800
  0.002  -0.002  -0.802  -0.002  -0.001   0.649   0.002   0.002
 -0.001   0.001  -0.002  -0.803   0.002   0.002   0.649  -0.003
 -0.001   0.002  -0.001   0.002  -0.800   0.002  -0.003   0.647


----------------------------------------- Iteration    1(  11)  ---------------------------------------


    POTLOK:  cpu time    0.02: real time    0.02
    SETDIJ:  cpu time    0.01: real time    0.02
    EDDIAG:  cpu time    0.02: real time    0.02
  RMM-DIIS:  cpu time    0.03: real time    0.04
    ORTHCH:  cpu time    0.01: real time    0.01
       DOS:  cpu time    0.00: real time    0.00
    CHARGE:  cpu time    0.02: real time    0.02
    MIXING:  cpu time    0.00: real time    0.00
    --------------------------------------------
      LOOP:  cpu time    0.12: real time    0.13

 eigenvalue-minimisations  :   115
 total energy-change (2. order) : 0.4460285E-05  (-0.3040907E-06)
 number of electron      31.9999999 magnetization 
 augmentation part       -1.7274424 magnetization 

 Broyden mixing:
  rms(total) = 0.16102E-03    rms(broyden)= 0.16097E-03
  rms(prec ) = 0.31679E-03
  weight for this iteration     100.00

 eigenvalues of (default mixing * dielectric matrix)
  average eigenvalue GAMMA=   1.9619
  3.2080  2.7022  2.1662  1.7395  0.9776  0.9776

 Free energy of the ion-electron system (eV)
  ---------------------------------------------------
  alpha Z        PSCENC =        12.68944982
  Ewald energy   TEWEN  =      -907.56617001
  -1/2 Hartree   DENC   =       -70.82823658
  -exchange  EXHF       =         0.00000000
  -V(xc)+E(xc)   XCENC  =       -72.91088281
  PAW double counting   =       307.73394166     -166.57508971
  entropy T*S    EENTRO =         0.00000000
  eigenvalues    EBANDS =        37.85851128
  atomic energy  EATOM  =       826.37398168
  ---------------------------------------------------
  free energy    TOTEN  =       -33.22449468 eV

  energy without entropy =      -33.22449468  energy(sigma->0) =      -33.22449468


--------------------------------------------------------------------------------------------------------




 average (electrostatic) potential at core
  the test charge radii are     0.9892
  (the norm of the test charge is              1.0000)
       1 -83.2285       2 -83.2286       3 -83.2248       4 -83.2287       5 -83.2269
       6 -83.2283       7 -83.2310       8 -83.2255
 
 
 
 E-fermi :   6.0535     XC(G=0):  -9.1314     alpha+bet :-11.7379


 k-point   1 :       0.0000    0.0000    0.0000
  band No.  band energies     occupation 
      1      -5.9502      2.00000
      2      -1.8818      2.00000
      3      -1.8761      2.00000
      4      -1.8658      2.00000
      5      -1.8593      2.00000
      6      -1.8563      2.00000
      7      -1.8512      2.00000
      8       3.0415      2.00000
      9       3.0471      2.00000
     10       3.0498      2.00000
     11       3.0537      2.00000
     12       3.0548      2.00000
     13       3.0572      2.00000
     14       5.9074      2.00000
     15       5.9146      2.00000
     16       5.9439      2.00000
     17       6.5809      0.00000
     18       6.5906      0.00000
     19       6.5944      0.00000
     20       6.5981      0.00000
     21       6.6018      0.00000
     22       6.6072      0.00000
     23       8.3664      0.00000
     24       8.3838      0.00000
     25       8.3882      0.00000
     26       9.0553      0.00000
     27      13.6114      0.00000
     28      13.6115      0.00000
     29      13.8249      0.00000
     30      15.8205      0.00000
     31      15.8225      0.00000
     32      15.8251      0.00000
     33      15.8293      0.00000
     34      15.8314      0.00000
     35      15.8383      0.00000
     36      16.9390      0.00000
     37      16.9571      0.00000
     38      16.9620      0.00000
     39      16.9713      0.00000
     40      16.9804      0.00000
     41      16.9850      0.00000
     42      16.9894      0.00000
     43      16.9926      0.00000
     44      16.9992      0.00000
     45      18.7130      0.00000
     46      18.7190      0.00000
     47      18.7324      0.00000
     48      18.7361      0.00000


--------------------------------------------------------------------------------------------------------


 soft charge-density along one line, spin component           1
         0         1         2         3         4         5         6         7         8         9
 total charge-density along one line
 
 pseudopotential strength for first ion, spin component:           1
 18.597  -0.001   0.000   0.000   0.000   0.000   0.000   0.000
 -0.001   0.006   0.000   0.000   0.000   0.000   0.000   0.000
  0.000   0.000   4.224   0.000   0.000  -0.005   0.000   0.000
  0.000   0.000   0.000   4.224   0.000   0.000  -0.005   0.000
  0.000   0.000   0.000   0.000   4.224   0.000   0.000  -0.005
  0.000   0.000  -0.005   0.000   0.000   0.005   0.000   0.000
  0.000   0.000   0.000  -0.005   0.000   0.000   0.005   0.000
  0.000   0.000   0.000   0.000  -0.005   0.000   0.000   0.005
 total augmentation occupancy for first ion, spin component:           1
  1.320  -1.087  -0.001   0.001   0.001   0.002  -0.001  -0.001
 -1.087   1.012   0.002   0.000  -0.002  -0.002   0.001   0.002
 -0.001   0.002   1.123   0.001   0.000  -0.802  -0.002  -0.001
  0.001   0.000   0.001   1.124  -0.001  -0.002  -0.803   0.002
  0.001  -0.002   0.000  -0.001   1.120  -0.001   0.002  -0.800
  0.002  -0.002  -0.802  -0.002  -0.001   0.649   0.002   0.002
 -0.001   0.001  -0.002  -0.803   0.002   0.002   0.649  -0.003
 -0.001   0.002  -0.001   0.002  -0.800   0.002  -0.003   0.647


----------------------------------------- Iteration    1(  12)  ---------------------------------------


    POTLOK:  cpu time    0.02: real time    0.02
    SETDIJ:  cpu time    0.01: real time    0.02
    EDDIAG:  cpu time    0.02: real time    0.02
  RMM-DIIS:  cpu time    0.04: real time    0.04
    ORTHCH:  cpu time    0.00: real time    0.01
       DOS:  cpu time    0.00: real time    0.00
    CHARGE:  cpu time    0.02: real time    0.02
    MIXING:  cpu time    0.00: real time    0.00
    --------------------------------------------
      LOOP:  cpu time    0.13: real time    0.13

 eigenvalue-minimisations  :   126
 total energy-change (2. order) :-0.7200442E-06  (-0.5963775E-07)
 number of electron      31.9999999 magnetization 
 augmentation part       -1.7274288 magnetization 

 Broyden mixing:
  rms(total) = 0.61599E-04    rms(broyden)= 0.61567E-04
  rms(prec ) = 0.87038E-04
  weight for this iteration     100.00

 eigenvalues of (default mixing * dielectric matrix)
  average eigenvalue GAMMA=   2.0021
  3.2078  2.7374  2.4802  2.0816  1.5467  0.9970  0.9644

 Free energy of the ion-electron system (eV)
  ---------------------------------------------------
  alpha Z        PSCENC =        12.68944982
  Ewald energy   TEWEN  =      -907.56617001
  -1/2 Hartree   DENC   =       -70.83286179
  -exchange  EXHF       =         0.00000000
  -V(xc)+E(xc)   XCENC  =       -72.91080267
  PAW double counting   =       307.74231857     -166.58370128
  entropy T*S    EENTRO =         0.00000000
  eigenvalues    EBANDS =        37.86329028
  atomic energy  EATOM  =       826.37398168
  ---------------------------------------------------
  free energy    TOTEN  =       -33.22449540 eV

  energy without entropy =      -33.22449540  energy(sigma->0) =      -33.22449540


--------------------------------------------------------------------------------------------------------




 average (electrostatic) potential at core
  the test charge radii are     0.9892
  (the norm of the test charge is              1.0000)
       1 -83.2280       2 -83.2281       3 -83.2242       4 -83.2282       5 -83.2263
       6 -83.2277       7 -83.2306       8 -83.2249
 
 
 
 E-fermi :   6.0543     XC(G=0):  -9.1311     alpha+bet :-11.7379


 k-point   1 :       0.0000    0.0000    0.0000
  band No.  band energies     occupation 
      1      -5.9500      2.00000
      2      -1.8816      2.00000
      3      -1.8759      2.00000
      4      -1.8657      2.00000
      5      -1.8592      2.00000
      6      -1.8562      2.00000
      7      -1.8511      2.00000
      8       3.0417      2.00000
      9       3.0472      2.00000
     10       3.0499      2.00000
     11       3.0539      2.00000
     12       3.0549      2.00000
[...]
    MIXING:  cpu time    0.00: real time    0.00
    --------------------------------------------
      LOOP:  cpu time    0.15: real time    0.15

 Broyden mixing:
  rms(total) = 0.71299E-02    rms(broyden)= 0.71295E-02
  rms(prec ) = 0.12243E-01
  weight for this iteration     100.00

 eigenvalues of (default mixing * dielectric matrix)
  average eigenvalue GAMMA=   2.0714
  3.0211  2.4846  1.1223  1.6577

 Free energy of the ion-electron system (eV)
  ---------------------------------------------------
  -1/2 Hartree   DENC   =        -4.61521724
  -V(xc)+E(xc)   XCENC  =         0.94968575
  PAW double counting   =         3.10281542       -3.15221778
  entropy T*S    EENTRO =         0.00000000
  eigenvalues    EBANDS =       -24.52954207
  ---------------------------------------------------
  free energy    TOTEN  =       -28.24447593 eV

  energy without entropy =      -28.24447593


----------------------------------------- Iteration    3(   7)  ---------------------------------------


   POT+DIJ:  cpu time    0.07: real time    0.08
    HAMIL1:  cpu time    0.00: real time    0.01
    LRDIAG:  cpu time    0.01: real time    0.01
    LRDIIS:  cpu time    0.02: real time    0.02
    LRDIAG:  cpu time    0.01: real time    0.01
    MIXING:  cpu time    0.00: real time    0.00
    --------------------------------------------
      LOOP:  cpu time    0.15: real time    0.15

 Broyden mixing:
  rms(total) = 0.55117E-03    rms(broyden)= 0.55028E-03
  rms(prec ) = 0.10532E-02
  weight for this iteration     100.00

 eigenvalues of (default mixing * dielectric matrix)
  average eigenvalue GAMMA=   1.9428
  3.0875  2.4206  1.1139  1.6663  1.4256

 Free energy of the ion-electron system (eV)
  ---------------------------------------------------
  -1/2 Hartree   DENC   =        -4.62731643
  -V(xc)+E(xc)   XCENC  =         0.95744321
  PAW double counting   =         3.06547702       -3.11431856
  entropy T*S    EENTRO =         0.00000000
  eigenvalues    EBANDS =       -24.56583104
  ---------------------------------------------------
  free energy    TOTEN  =       -28.28454580 eV

  energy without entropy =      -28.28454580


----------------------------------------- Iteration    3(   8)  ---------------------------------------


   POT+DIJ:  cpu time    0.08: real time    0.08
    HAMIL1:  cpu time    0.00: real time    0.01
    LRDIAG:  cpu time    0.01: real time    0.01
    LRDIIS:  cpu time    0.02: real time    0.02
    LRDIAG:  cpu time    0.01: real time    0.01
    MIXING:  cpu time    0.00: real time    0.00
    --------------------------------------------
      LOOP:  cpu time    0.15: real time    0.15

 Broyden mixing:
  rms(total) = 0.27741E-03    rms(broyden)= 0.27734E-03
  rms(prec ) = 0.41123E-03
  weight for this iteration     100.00

 eigenvalues of (default mixing * dielectric matrix)
  average eigenvalue GAMMA=   1.9104
  3.0861  2.4709  2.0469  1.6654  1.1294  1.0635

 Free energy of the ion-electron system (eV)
  ---------------------------------------------------
  -1/2 Hartree   DENC   =        -4.63089062
  -V(xc)+E(xc)   XCENC  =         0.95840869
  PAW double counting   =         3.06917476       -3.11807859
  entropy T*S    EENTRO =         0.00000000
  eigenvalues    EBANDS =       -24.56705405
  ---------------------------------------------------
  free energy    TOTEN  =       -28.28843981 eV

  energy without entropy =      -28.28843981


----------------------------------------- Iteration    3(   9)  ---------------------------------------


   POT+DIJ:  cpu time    0.07: real time    0.08
    HAMIL1:  cpu time    0.00: real time    0.01
    LRDIAG:  cpu time    0.02: real time    0.02
    LRDIIS:  cpu time    0.02: real time    0.02
    LRDIAG:  cpu time    0.01: real time    0.01
    MIXING:  cpu time    0.00: real time    0.00
    --------------------------------------------
      LOOP:  cpu time    0.16: real time    0.16

 Broyden mixing:
  rms(total) = 0.10433E-03    rms(broyden)= 0.10431E-03
  rms(prec ) = 0.15818E-03
  weight for this iteration     100.00

 eigenvalues of (default mixing * dielectric matrix)
  average eigenvalue GAMMA=   1.8920
  3.1731  2.7262  2.4013  1.6758  1.2660  1.1022  0.8996

 Free energy of the ion-electron system (eV)
  ---------------------------------------------------
  -1/2 Hartree   DENC   =        -4.63055525
  -V(xc)+E(xc)   XCENC  =         0.95834292
  PAW double counting   =         3.07125507       -3.12019489
  entropy T*S    EENTRO =         0.00000000
  eigenvalues    EBANDS =       -24.56732196
  ---------------------------------------------------
  free energy    TOTEN  =       -28.28847410 eV

  energy without entropy =      -28.28847410


----------------------------------------- Iteration    3(  10)  ---------------------------------------


   POT+DIJ:  cpu time    0.07: real time    0.08
    HAMIL1:  cpu time    0.00: real time    0.01
    LRDIAG:  cpu time    0.01: real time    0.01
    LRDIIS:  cpu time    0.02: real time    0.02
    LRDIAG:  cpu time    0.01: real time    0.01
    MIXING:  cpu time    0.00: real time    0.00
    --------------------------------------------
      LOOP:  cpu time    0.15: real time    0.15

 Broyden mixing:
  rms(total) = 0.16314E-04    rms(broyden)= 0.16303E-04
  rms(prec ) = 0.26493E-04
  weight for this iteration     100.00

 eigenvalues of (default mixing * dielectric matrix)
  average eigenvalue GAMMA=   1.8380
  3.1946  2.7640  2.4495  1.6727  1.4372  0.9637  1.1285  1.0937

 Free energy of the ion-electron system (eV)
  ---------------------------------------------------
  -1/2 Hartree   DENC   =        -4.63064475
  -V(xc)+E(xc)   XCENC  =         0.95838664
  PAW double counting   =         3.07238537       -3.12134491
  entropy T*S    EENTRO =         0.00000000
  eigenvalues    EBANDS =       -24.56757830
  ---------------------------------------------------
  free energy    TOTEN  =       -28.28879595 eV

  energy without entropy =      -28.28879595


----------------------------------------- Iteration    3(  11)  ---------------------------------------


   POT+DIJ:  cpu time    0.07: real time    0.08
    HAMIL1:  cpu time    0.00: real time    0.01
    LRDIAG:  cpu time    0.01: real time    0.01
    LRDIIS:  cpu time    0.02: real time    0.02
    LRDIAG:  cpu time    0.01: real time    0.01
    MIXING:  cpu time    0.00: real time    0.00
    --------------------------------------------
      LOOP:  cpu time    0.15: real time    0.15

 Broyden mixing:
  rms(total) = 0.40037E-05    rms(broyden)= 0.40016E-05
  rms(prec ) = 0.60982E-05
  weight for this iteration     100.00

 eigenvalues of (default mixing * dielectric matrix)
  average eigenvalue GAMMA=   1.8558
  3.1982  2.7932  2.4299  2.0808  1.6729  1.4026  0.9666  1.1058  1.0520

 Free energy of the ion-electron system (eV)
  ---------------------------------------------------
  -1/2 Hartree   DENC   =        -4.63065361
  -V(xc)+E(xc)   XCENC  =         0.95838383
  PAW double counting   =         3.07249249       -3.12145377
  entropy T*S    EENTRO =         0.00000000
  eigenvalues    EBANDS =       -24.56756049
  ---------------------------------------------------
  free energy    TOTEN  =       -28.28879156 eV

  energy without entropy =      -28.28879156


----------------------------------------- Iteration    3(  12)  ---------------------------------------


   POT+DIJ:  cpu time    0.07: real time    0.08
    HAMIL1:  cpu time    0.01: real time    0.01
    LRDIAG:  cpu time    0.01: real time    0.01
    LRDIIS:  cpu time    0.02: real time    0.02
    LRDIAG:  cpu time    0.01: real time    0.01
    MIXING:  cpu time    0.00: real time    0.00
    --------------------------------------------
      LOOP:  cpu time    0.15: real time    0.15

 Broyden mixing:
  rms(total) = 0.13573E-05    rms(broyden)= 0.13569E-05
  rms(prec ) = 0.19360E-05
  weight for this iteration     100.00

 eigenvalues of (default mixing * dielectric matrix)
  average eigenvalue GAMMA=   1.8430
  3.2040  2.7894  2.4700  2.3701  1.6734  1.3992  1.3992  0.9905  1.0285  1.1057

 Free energy of the ion-electron system (eV)
  ---------------------------------------------------
  -1/2 Hartree   DENC   =        -4.63065286
  -V(xc)+E(xc)   XCENC  =         0.95838346
  PAW double counting   =         3.07242555       -3.12138570
  entropy T*S    EENTRO =         0.00000000
  eigenvalues    EBANDS =       -24.56756240
  ---------------------------------------------------
  free energy    TOTEN  =       -28.28879196 eV

  energy without entropy =      -28.28879196


----------------------------------------- Iteration    3(  13)  ---------------------------------------


   POT+DIJ:  cpu time    0.07: real time    0.08
    HAMIL1:  cpu time    0.01: real time    0.01
    LRDIAG:  cpu time    0.01: real time    0.01
    LRDIIS:  cpu time    0.02: real time    0.02
    LRDIAG:  cpu time    0.01: real time    0.01
    MIXING:  cpu time    0.00: real time    0.00
    --------------------------------------------
      LOOP:  cpu time    0.15: real time    0.15

 Broyden mixing:
  rms(total) = 0.41052E-06    rms(broyden)= 0.41045E-06
  rms(prec ) = 0.65037E-06
  weight for this iteration     100.00

 eigenvalues of (default mixing * dielectric matrix)
  average eigenvalue GAMMA=   1.8155
  3.2075  2.8322  2.4378  2.6047  1.6821  1.6329  0.9952  0.9952  1.1070  1.2638
  1.2120

 Free energy of the ion-electron system (eV)
  ---------------------------------------------------
  -1/2 Hartree   DENC   =        -4.63065467
  -V(xc)+E(xc)   XCENC  =         0.95838371
  PAW double counting   =         3.07240044       -3.12136020
  entropy T*S    EENTRO =         0.00000000
  eigenvalues    EBANDS =       -24.56756212
  ---------------------------------------------------
  free energy    TOTEN  =       -28.28879284 eV

  energy without entropy =      -28.28879284


------------------------ aborting loop because EDIFF is reached ----------------------------------------


 change of polarisation eV/A/(eV/A) component  3 :     0.299    -0.323    50.537
 dielectric tensor                  component  3 :     0.330    -0.357    56.874


--------------------------------------------------------------------------------------------------------


    FORLOC:  cpu time    0.00: real time    0.00
    FORNL :  cpu time    0.09: real time    0.09
    STRESS:  cpu time    0.29: real time    0.29
    FORCOR:  cpu time    0.02: real time    0.02
    FORLOC:  cpu time    0.00: real time    0.00
    FORNL :  cpu time    0.09: real time    0.09
    STRESS:  cpu time    0.29: real time    0.29
    FORCOR:  cpu time    0.02: real time    0.02
    FORNLD:  cpu time    0.01: real time    0.01

 PIEZOELECTRIC TENSOR FIELD DIRECTION 3  (e Angst)
 -----------------------------------------------------------------------------
     0.00149  0.00031  0.00179           (  0.00000 -0.00002  0.00001)
     0.00031  0.00362 -0.00929           ( -0.00002  0.00000 -0.00001)
     0.00179 -0.00929 -0.00370           (  0.00001 -0.00001  0.00001)

 PIEZOELECTRIC TENSOR FIELD DIRECTION 3  (C/m^2)
 -----------------------------------------------------------------------------
     0.00015  0.00003  0.00018
     0.00003  0.00035 -0.00091
     0.00018 -0.00091 -0.00036


      POSITION         DIRECTION 3           BORN EFFECTIVE CHARGE    (rigid.aug.   ionic)
 -----------------------------------------------------------------------------------------
      0.00107      5.46645      0.00233     0.10996 -0.10673 -5.78814 (  0.21594  4.00000)
      1.36395      1.36983      1.36678    -0.04923  0.04958 -5.75043 (  0.21594  4.00000)
      2.73733      2.73428      0.00147    -0.14959  0.10710 -5.84018 (  0.21590  4.00000)
      4.10178      4.10397      1.36942    -0.03985 -0.00305 -5.74999 (  0.21594  4.00000)
      2.73647      0.00192      2.73485    -0.13503 -0.09262 -5.77356 (  0.21592  4.00000)
      4.10442      1.36735      4.09893     0.02832  0.02722 -5.78777 (  0.21593  4.00000)
      5.46985      2.73143      2.73511     0.13104  0.13371 -5.70388 (  0.21596  4.00000)
      1.36393      4.10261      4.10267     0.02952 -0.03563 -5.82147 (  0.21591  4.00000)
 -----------------------------------------------------------------------------------------
    total drift (improves with k-points):  -0.07486  0.07958-46.21542




--------------------------------------------------------------------------------------------------------


  LATTYP: Found a simple cubic cell.
 ALAT       =     5.4700000000
  
  Lattice vectors:
  
 A1 = (   5.4700000000,   0.0000000000,   0.0000000000)
 A2 = (   0.0000000000,   5.4700000000,   0.0000000000)
 A3 = (   0.0000000000,   0.0000000000,   5.4700000000)


Analysis of symmetry for initial positions (statically):
=====================================================================
 Subroutine PRICEL returns:
 Original cell was already a primitive cell.
 

 Routine SETGRP: Setting up the symmetry group for a 
 simple cubic supercell.


 Subroutine GETGRP returns: Found  1 space group operations
 (whereof  1 operations were pure point group operations)
 out of a pool of 48 trial point group operations.


The static configuration has the point symmetry C_1 .


Analysis of symmetry for dynamics (positions and initial velocities):
=====================================================================
 Subroutine PRICEL returns:
 Original cell was already a primitive cell.
 

 Routine SETGRP: Setting up the symmetry group for a 
 simple cubic supercell.


 Subroutine GETGRP returns: Found  1 space group operations
 (whereof  1 operations were pure point group operations)
 out of a pool of 48 trial point group operations.


The dynamic configuration has the point symmetry C_1 .


 MACROSCOPIC STATIC DIELECTRIC TENSOR (including local field effects in DFT)
 ------------------------------------------------------
          56.873124    -0.207167     0.330316
          -0.207166    56.876772    -0.357148
           0.330316    -0.357149    56.874241
 ------------------------------------------------------



--------------------------------------------------------------------------------------------------------


  LATTYP: Found a simple cubic cell.
 ALAT       =     5.4700000000
  
  Lattice vectors:
  
 A1 = (   5.4700000000,   0.0000000000,   0.0000000000)
 A2 = (   0.0000000000,   5.4700000000,   0.0000000000)
 A3 = (   0.0000000000,   0.0000000000,   5.4700000000)


Analysis of symmetry for initial positions (statically):
=====================================================================
 Subroutine PRICEL returns:
 Original cell was already a primitive cell.
 

 Routine SETGRP: Setting up the symmetry group for a 
 simple cubic supercell.


 Subroutine GETGRP returns: Found  1 space group operations
 (whereof  1 operations were pure point group operations)
 out of a pool of 48 trial point group operations.


The static configuration has the point symmetry C_1 .


Analysis of symmetry for dynamics (positions and initial velocities):
=====================================================================
 Subroutine PRICEL returns:
 Original cell was already a primitive cell.
 

 Routine SETGRP: Setting up the symmetry group for a 
 simple cubic supercell.


 Subroutine GETGRP returns: Found  1 space group operations
 (whereof  1 operations were pure point group operations)
 out of a pool of 48 trial point group operations.


The dynamic configuration has the point symmetry C_1 .
 
 KPOINTS: Automatic mesh                          

Automatic generation of k-mesh.
Space group operators:
 irot       det(A)        alpha          n_x          n_y          n_z        tau_x        tau_y        tau_z
    1     1.000000     0.000001     1.000000     0.000000     0.000000     0.000000     0.000000     0.000000
 
 Subroutine IBZKPT returns following result:
 ===========================================
 
 Found      1 irreducible k-points:
 
 Following reciprocal coordinates:
            Coordinates               Weight
  0.000000  0.000000  0.000000      1.000000
 
 Following cartesian coordinates:
            Coordinates               Weight
  0.000000  0.000000  0.000000      1.000000
 


--------------------------------------------------------------------------------------------------------




 MACROSCOPIC STATIC DIELECTRIC TENSOR (including local field effects in DFT)
 ------------------------------------------------------
          56.873124    -0.207167     0.330316
          -0.207166    56.876772    -0.357148
           0.330316    -0.357149    56.874241
 ------------------------------------------------------


 PIEZOELECTRIC TENSOR  for field in x, y, z        (e  Angst)
          XX          YY          ZZ          XY          YZ          ZX
  --------------------------------------------------------------------------------
  x     0.00396    -0.00174     0.00210    -0.00001     0.00338    -0.00282
  y     0.01855    -0.00622    -0.01069     0.00193    -0.00387    -0.00485
  z     0.00149     0.00362    -0.00370     0.00031    -0.00929     0.00179

 PIEZOELECTRIC TENSOR  for field in x, y, z        (C/m^2)
          XX          YY          ZZ          XY          YZ          ZX
  --------------------------------------------------------------------------------
  x     0.00039    -0.00017     0.00021     0.00000     0.00033    -0.00028
  y     0.00182    -0.00061    -0.00105     0.00019    -0.00038    -0.00047
  z     0.00015     0.00035    -0.00036     0.00003    -0.00091     0.00018
 
 BORN EFFECTIVE CHARGES (in e, cummulative output)
 -------------------------------------------------
 ion    1
    1    -5.73701     0.05267    -0.13762
    2    -0.00262    -5.76887     0.11211
    3     0.10996    -0.10673    -5.78814
 ion    2
    1    -5.77528    -0.17868     0.00755
    2     0.24638    -5.75131    -0.01448
    3    -0.04923     0.04958    -5.75043
 ion    3
    1    -5.85368    -0.04042     0.10699
    2     0.01484    -5.82022    -0.02168
    3    -0.14959     0.10710    -5.84018
 ion    4
    1    -5.74799     0.19303     0.01128
    2    -0.23175    -5.77306     0.04608
    3    -0.03985    -0.00305    -5.74999
 ion    5
    1    -5.82565     0.03150     0.11957
    2    -0.01419    -5.79144     0.03475
    3    -0.13503    -0.09262    -5.77356
 ion    6
    1    -5.75725     0.00194    -0.03091
    2    -0.05983    -5.76247    -0.02060
    3     0.02832     0.02722    -5.78777
 ion    7
    1    -5.69266    -0.02168    -0.12236
    2     0.02405    -5.72560    -0.08428
    3     0.13104     0.13371    -5.70388
 ion    8
    1    -5.82596     0.00649    -0.02940
    2     0.06792    -5.82148     0.02770
    3     0.02952    -0.03563    -5.82147


--------------------------------------------------------------------------------------------------------


     LOOP+:  cpu time   20.75: real time   21.16
    4ORBIT:  cpu time    0.00: real time    0.00

 total amount of memory used by VASP on root node    32224. kBytes
========================================================================

   base      :      30000. kBytes
   nonl-proj :        202. kBytes
   fftplans  :        782. kBytes
   grid      :       1198. kBytes
   one-center:         24. kBytes
   wavefun   :         18. kBytes
 
  
  
 General timing and accounting informations for this job:
 ========================================================
  
                  Total CPU time used (sec):       21.452
                            User time (sec):       17.010
                          System time (sec):        4.441
                         Elapsed time (sec):       23.339
  
                   Maximum memory used (kb):       80064.
                   Average memory used (kb):           0.
  
                          Minor page faults:       204267
                          Major page faults:            0
                 Voluntary context switches:         1530
