 vasp.5.3.3 18Dez12 (build Jan  9 2014 12:00:49) complex                        
  
 executed on             LinuxIFC date 2014.01.29  10:03:41
 running on   48 total cores
 distrk:  each k-point on   48 cores,    1 groups
 distr:  one band on NCORES_PER_BAND=   1 cores,   48 groups


--------------------------------------------------------------------------------------------------------


 INCAR:
 POTCAR:    PAW Si                                

 ----------------------------------------------------------------------------- 
|                                                                             |
|           W    W    AA    RRRRR   N    N  II  N    N   GGGG   !!!           |
|           W    W   A  A   R    R  NN   N  II  NN   N  G    G  !!!           |
|           W    W  A    A  R    R  N N  N  II  N N  N  G       !!!           |
|           W WW W  AAAAAA  RRRRR   N  N N  II  N  N N  G  GGG   !            |
|           WW  WW  A    A  R   R   N   NN  II  N   NN  G    G                |
|           W    W  A    A  R    R  N    N  II  N    N   GGGG   !!!           |
|                                                                             |
|      For optimal performance we recommend that you set                      |
|        NPAR = 4 - approx SQRT( number of cores)                             |
|      (number of cores/NPAR must be integer)                                 |
|      This setting will greatly improve the performance of VASP for DFT.     |
|      The default NPAR=number of cores might be grossly inefficient          |
|      on modern multi-core architectures or massively parallel machines.     |
|      Do your own testing.                                                   |
|      Unfortunately you need to use the default for hybrid, GW and RPA       |
|      calculations.                                                          |
|                                                                             |
 ----------------------------------------------------------------------------- 

 POTCAR:    PAW Si                                
   VRHFIN =Si: s2p2                                                             
   LEXCH  = 91                                                                  
   EATOM  =   103.3076 eV,    7.5929 Ry                                         
                                                                                
   TITEL  = PAW Si                                                              
   LULTRA =        F    use ultrasoft PP ?                                      
   IUNSCR =        1    unscreen: 0-lin 1-nonlin 2-no                           
   RPACOR =    1.500    partial core radius                                     
   POMASS =   28.085; ZVAL   =    4.000    mass and valenz                      
   RCORE  =    1.900    outmost cutoff radius                                   
   RWIGS  =    2.480; RWIGS  =    1.312    wigner-seitz radius (au A)           
   ENMAX  =  245.435; ENMIN  =  184.076 eV                                      
   ICORE  =        2    local potential                                         
   LCOR   =        T    correct aug charges                                     
   LPAW   =        T    paw PP                                                  
   EAUG   =  322.069                                                            
   DEXC   =    -.001                                                            
   RMAX   =    2.943    core radius for proj-oper                               
   RAUG   =    1.300    factor for augmentation sphere                          
   RDEP   =    1.993    core radius for depl-charge                             
   QCUT   =   -4.247; QGAM   =    8.494    optimization parameters              
                                                                                
   Description                                                                  
     l     E      TYP  RCUT    TYP  RCUT                                        
     0   .000     23  1.900                                                     
     0   .000     23  1.900                                                     
     1   .000     23  1.900                                                     
     1   .000     23  1.900                                                     
     2   .000      7  1.900                                                     
  local pseudopotential read in
  partial core-charges read in
  atomic valenz-charges read in
  non local Contribution for L=           0  read in
    real space projection operators read in
  non local Contribution for L=           0  read in
    real space projection operators read in
  non local Contribution for L=           1  read in
    real space projection operators read in
  non local Contribution for L=           1  read in
    real space projection operators read in
    PAW grid and wavefunctions read in
 
   number of l-projection  operators is LMAX  =           4
   number of lm-projection operators is LMMAX =           8
 
  PAW Si                                :
 energy of atom  1       EATOM= -103.3076
 kinetic energy error for atom=    0.0109 (will be added to EATOM!!)
 
 
 POSCAR: OUTCAR.0012.-1.out 1.0e-02              
  positions in cartesian coordinates
  No initial velocities read in
 exchange correlation table for  LEXCH =        7
   RHO(1)=    0.500       N(1)  =     2000
   RHO(2)=  100.500       N(2)  =     4000

 VTST: version 3.0c, (01/09/14)

 CHAIN: initializing optimizer
 
 OPT: Using VASP Dynamics algorithm
 CHAIN: Read ICHAIN            0
 
 POSCAR: OUTCAR.0012.-1.out 1.0e-02              
  positions in cartesian coordinates
  No initial velocities read in
 


--------------------------------------------------------------------------------------------------------


 ion  position               nearest neighbor table
   1  1.000  1.000  1.000-   8 2.37   6 2.37   2 2.37   4 2.37
   2  0.250  0.250  0.250-   5 2.37   3 2.37   1 2.37   7 2.37
   3  0.500  0.500  1.000-   2 2.37   8 2.37   6 2.37   4 2.37
   4  0.750  0.750  0.251-   5 2.37   7 2.37   3 2.37   1 2.37
   5  0.500  0.001  0.500-   2 2.37   6 2.37   4 2.37   8 2.37
   6  0.751  0.250  0.749-   7 2.36   1 2.37   5 2.37   3 2.37
   7  1.000  0.499  0.500-   6 2.36   4 2.37   2 2.37   8 2.37
   8  0.249  0.750  0.750-   1 2.37   3 2.37   7 2.37   5 2.37
 
  LATTYP: Found a simple cubic cell.
 ALAT       =     5.4700000000
  
  Lattice vectors:
  
 A1 = (   5.4700000000,   0.0000000000,   0.0000000000)
 A2 = (   0.0000000000,   5.4700000000,   0.0000000000)
 A3 = (   0.0000000000,   0.0000000000,   5.4700000000)


Analysis of symmetry for initial positions (statically):
=====================================================================
 Subroutine PRICEL returns:
 Original cell was already a primitive cell.
 

 Routine SETGRP: Setting up the symmetry group for a 
 simple cubic supercell.


 Subroutine GETGRP returns: Found  1 space group operations
 (whereof  1 operations were pure point group operations)
 out of a pool of 48 trial point group operations.


The static configuration has the point symmetry C_1 .


Analysis of symmetry for dynamics (positions and initial velocities):
=====================================================================
 Subroutine PRICEL returns:
 Original cell was already a primitive cell.
 

 Routine SETGRP: Setting up the symmetry group for a 
 simple cubic supercell.


 Subroutine GETGRP returns: Found  1 space group operations
 (whereof  1 operations were pure point group operations)
 out of a pool of 48 trial point group operations.


The dynamic configuration has the point symmetry C_1 .


 irot  :   1
 --------------------------------------------------------------------
 isymop:   1   0   0
           0   1   0
           0   0   1

 gtrans:     0.0000000     0.0000000     0.0000000

 ptrans:     0.0000000     0.0000000     0.0000000
 rotmap:
 (   1->   1)  (   2->   2)  (   3->   3)  (   4->   4)  (   5->   5) 
 (   6->   6)  (   7->   7)  (   8->   8) 
 
 
 KPOINTS: Automatic mesh                          

Automatic generation of k-mesh.
Space group operators:
 irot       det(A)        alpha          n_x          n_y          n_z        tau_x        tau_y        tau_z
    1     1.000000     0.000001     1.000000     0.000000     0.000000     0.000000     0.000000     0.000000
 
 Subroutine IBZKPT returns following result:
 ===========================================
 
 Found      1 irreducible k-points:
 
 Following reciprocal coordinates:
            Coordinates               Weight
  0.000000  0.000000  0.000000      1.000000
 
 Following cartesian coordinates:
            Coordinates               Weight
  0.000000  0.000000  0.000000      1.000000
 
 
 Subroutine IBZKPT_HF returns following result:
 ==============================================
 
 Found      1 k-points in 1st BZ
 the following      1 k-points will be used (e.g. in the exchange kernel)
 Following reciprocal coordinates:   # in IRBZ
  0.000000  0.000000  0.000000       1 t-inv F


--------------------------------------------------------------------------------------------------------




 Dimension of arrays:
   k-points           NKPTS =      1   k-points in BZ     NKDIM =      1   number of bands    NBANDS=     48
   number of dos      NEDOS =    301   number of ions     NIONS =      8
   non local maximal  LDIM  =      4   non local SUM 2l+1 LMDIM =      8
   total plane-waves  NPLWV =  21952
   max r-space proj   IRMAX =      1   max aug-charges    IRDMAX=  36071
   dimension x,y,z NGX =    28 NGY =   28 NGZ =   28
   dimension x,y,z NGXF=    56 NGYF=   56 NGZF=   56
   support grid    NGXF=   112 NGYF=  112 NGZF=  112
   ions per type =               8
 NGX,Y,Z   is equivalent  to a cutoff of   8.51,  8.51,  8.51 a.u.
 NGXF,Y,Z  is equivalent  to a cutoff of  17.02, 17.02, 17.02 a.u.


 I would recommend the setting:
   dimension x,y,z NGX =    19 NGY =   19 NGZ =   19
 SYSTEM =  NAPTHA04                                
 POSCAR =  OUTCAR.0012.-1.out 1.0e-02              

 Startparameter for this run:
   NWRITE =      3    write-flag & timer
   PREC   = normal    normal or accurate (medium, high low for compatibility)
   ISTART =      0    job   : 0-new  1-cont  2-samecut
   ICHARG =      2    charge: 1-file 2-atom 10-const
   ISPIN  =      1    spin polarized calculation?
   LNONCOLLINEAR =      F non collinear calculations
   LSORBIT =      F    spin-orbit coupling
   INIWAV =      1    electr: 0-lowe 1-rand  2-diag
   LASPH  =      F    aspherical Exc in radial PAW
   METAGGA=      F    non-selfconsistent MetaGGA calc.

 Electronic Relaxation 1
   ENCUT  =  200.0 eV  14.70 Ry    3.83 a.u.   6.31  6.31  6.31*2*pi/ulx,y,z
   ENINI  =  200.0     initial cutoff
   ENAUG  =  322.1 eV  augmentation charge cutoff
   NELM   =     60;   NELMIN=  2; NELMDL= -5     # of ELM steps 
   EDIFF  = 0.1E-07   stopping-criterion for ELM
   LREAL  =      F    real-space projection
   NLSPLINE    = F    spline interpolate recip. space projectors
   LCOMPAT=      F    compatible to vasp.4.4
   GGA_COMPAT  = T    GGA compatible to vasp.4.4-vasp.4.6
   LMAXPAW     = -100 max onsite density
   LMAXMIX     =    2 max onsite mixed and CHGCAR
   VOSKOWN=      0    Vosko Wilk Nusair interpolation
   ROPT   =    0.00000
 Ionic relaxation
   EDIFFG = 0.1E-06   stopping-criterion for IOM
   NSW    =      0    number of steps for IOM
   NBLOCK =      1;   KBLOCK =      1    inner block; outer block 
   IBRION =     -1    ionic relax: 0-MD 1-quasi-New 2-CG
   NFREE  =      0    steps in history (QN), initial steepest desc. (CG)
   ISIF   =      2    stress and relaxation
   IWAVPR =     10    prediction:  0-non 1-charg 2-wave 3-comb
   ISYM   =      2    0-nonsym 1-usesym 2-fastsym
   LCORR  =      T    Harris-Foulkes like correction to forces

   POTIM  = 0.5000    time-step for ionic-motion
   TEIN   =    0.0    initial temperature
   TEBEG  =    0.0;   TEEND  =   0.0 temperature during run
   SMASS  =  -3.00    Nose mass-parameter (am)
   estimated Nose-frequenzy (Omega)   =  0.10E-29 period in steps =****** mass=  -0.684E-27a.u.
   SCALEE = 1.0000    scale energy and forces
   NPACO  =    256;   APACO  = 16.0  distance and # of slots for P.C.
   PSTRESS=    0.0 pullay stress

  Mass of Ions in am
   POMASS =  28.09
  Ionic Valenz
   ZVAL   =   4.00
  Atomic Wigner-Seitz radii
   RWIGS  =  -1.00
  virtual crystal weights 
   VCA    =   1.00
   NELECT =      32.0000    total number of electrons
   NUPDOWN=      -1.0000    fix difference up-down

 DOS related values:
   EMIN   =  10.00;   EMAX   =-10.00  energy-range for DOS
   EFERMI =   0.00
   ISMEAR =     0;   SIGMA  =   0.02  broadening in eV -4-tet -1-fermi 0-gaus

 Electronic relaxation 2 (details)
   IALGO  =     68    algorithm
   LDIAG  =      T    sub-space diagonalisation (order eigenvalues)
   LSUBROT=      T    optimize rotation matrix (better conditioning)
   TURBO    =      0    0=normal 1=particle mesh
   IRESTART =      0    0=no restart 2=restart with 2 vectors
   NREBOOT  =      0    no. of reboots
   NMIN     =      0    reboot dimension
   EREF     =   0.00    reference energy to select bands
   IMIX   =      4    mixing-type and parameters
     AMIX     =   0.40;   BMIX     =  1.00
     AMIX_MAG =   1.60;   BMIX_MAG =  1.00
     AMIN     =   0.10
     WC   =   100.;   INIMIX=   1;  MIXPRE=   1;  MAXMIX= -45

 Intra band minimization:
   WEIMIN = 0.0000     energy-eigenvalue tresh-hold
   EBREAK =  0.52E-10  absolut break condition
   DEPER  =   0.30     relativ break condition  

   TIME   =   0.40     timestep for ELM

  volume/ion in A,a.u.               =      20.46       138.06
  Fermi-wavevector in a.u.,A,eV,Ry     =   0.950176  1.795573 12.283814  0.902835
  Thomas-Fermi vector in A             =   2.078528
 
 Write flags
   LWAVE  =      F    write WAVECAR
   LCHARG =      F    write CHGCAR
   LVTOT  =      F    write LOCPOT, total local potential
   LVHAR  =      F    write LOCPOT, Hartree potential only
   LELF   =      F    write electronic localiz. function (ELF)
   LORBIT =      0    0 simple, 1 ext, 2 COOP (PROOUT)


 Dipole corrections
   LMONO  =      F    monopole corrections only (constant potential shift)
   LDIPOL =      F    correct potential (dipole corrections)
   IDIPOL =      0    1-x, 2-y, 3-z, 4-all directions 
   EPSILON=  1.0000000 bulk dielectric constant

 Exchange correlation treatment:
   GGA     =    --    GGA type
   LEXCH   =     7    internal setting for exchange type
   VOSKOWN=      0    Vosko Wilk Nusair interpolation
   LHFCALC =     F    Hartree Fock is set to
   LHFONE  =     F    Hartree Fock one center treatment
   AEXX    =    0.0000 exact exchange contribution

 Linear response parameters
   LEPSILON=     T    determine dielectric tensor
   LRPA    =     F    only Hartree local field effects (RPA)
   LNABLA  =     F    use nabla operator in PAW spheres
   LVEL    =     F    velocity operator in full k-point grid
   LINTERFAST=   F  fast interpolation
   KINTER  =     0    interpolate to denser k-point grid
   CSHIFT  =0.1000    complex shift for real part using Kramers Kronig
   OMEGAMAX=  -1.0    maximum frequency
   DEG_THRESHOLD= 0.2000000E-02 threshold for treating states as degnerate
   RTIME   =    0.100 relaxation time in fs

 Orbital magnetization related:
   ORBITALMAG=     F  switch on orbital magnetization
   LCHIMAG   =     F  perturbation theory with respect to B field
   DQ        =  0.001000  dq finite difference perturbation B field



--------------------------------------------------------------------------------------------------------


 Static calculation
 charge density and potential will be updated during run
 non-spin polarized calculation
 RMM-DIIS sequential band-by-band and
  variant of blocked Davidson during initial phase
 perform sub-space diagonalisation
    before iterative eigenvector-optimisation
 modified Broyden-mixing scheme, WC =      100.0
 initial mixing is a Kerker type mixing with AMIX =  0.4000 and BMIX =      1.0000
 Hartree-type preconditioning will be used
 using additional bands           32
 reciprocal scheme for non local part
 use partial core corrections
 calculate Harris-corrections to forces 
   (improved forces if not selfconsistent)
 use gradient corrections 
 use of overlap-Matrix (Vanderbilt PP)
 Gauss-broadening in eV      SIGMA  =   0.02


--------------------------------------------------------------------------------------------------------


  energy-cutoff  :      200.00
  volume of cell :      163.67
      direct lattice vectors                 reciprocal lattice vectors
     5.470000000  0.000000000  0.000000000     0.182815356  0.000000000  0.000000000
     0.000000000  5.470000000  0.000000000     0.000000000  0.182815356  0.000000000
     0.000000000  0.000000000  5.470000000     0.000000000  0.000000000  0.182815356

  length of vectors
     5.470000000  5.470000000  5.470000000     0.182815356  0.182815356  0.182815356


 
 k-points in units of 2pi/SCALE and weight: Automatic mesh                          
   0.00000000  0.00000000  0.00000000       1.000
 
 k-points in reciprocal lattice and weights: Automatic mesh                          
   0.00000000  0.00000000  0.00000000       1.000
 
 position of ions in fractional coordinates (direct lattice) 
   0.99975443  0.99999417  0.99968148
   0.24999417  0.24968148  0.24957773
   0.49968148  0.49957773  0.99970748
   0.74957773  0.74970748  0.25057709
   0.49970748  0.00057709  0.49997358
   0.75057709  0.24997358  0.74938483
   0.99997358  0.49938483  0.50001923
   0.24938483  0.75001923  0.75022034
 
 position of ions in cartesian coordinates  (Angst):
   5.46865672  5.46996813  5.46825768
   1.36746813  1.36575768  1.36519019
   2.73325768  2.73269019  5.46839992
   4.10019019  4.10089992  1.37065667
   2.73339992  0.00315667  2.73485549
   4.10565667  1.36735549  4.09913503
   5.46985549  2.73163503  2.73510516
   1.36413503  4.10260516  4.10370524
 


--------------------------------------------------------------------------------------------------------


 k-point  1 :   0.0000 0.0000 0.0000  plane waves:    1021

 maximum and minimum number of plane-waves per node :      1021     1021

 maximum number of plane-waves:      1021
 maximum index in each direction: 
   IXMAX=    6   IYMAX=    6   IZMAX=    6
   IXMIN=   -6   IYMIN=   -6   IZMIN=   -6

 NGX is ok and might be reduce to  26
 NGY is ok and might be reduce to  26
 NGZ is ok and might be reduce to  26

 serial   3D FFT for wavefunctions
 parallel 3D FFT for charge:
    minimum data exchange during FFTs selected (reduces bandwidth)


 total amount of memory used by VASP on root node    32224. kBytes
========================================================================

   base      :      30000. kBytes
   nonl-proj :        202. kBytes
   fftplans  :        782. kBytes
   grid      :       1198. kBytes
   one-center:         24. kBytes
   wavefun   :         18. kBytes
 
 Broyden mixing: mesh for mixing (old mesh)
   NGX = 13   NGY = 13   NGZ = 13
  (NGX  = 56   NGY  = 56   NGZ  = 56)
  gives a total of   2197 points

 initial charge density was supplied:
 charge density of overlapping atoms calculated
 number of electron      32.0000000 magnetization 
 keeping initial charge density in first step


--------------------------------------------------------------------------------------------------------


 Maximum index for augmentation-charges         1784 (set IRDMAX)


--------------------------------------------------------------------------------------------------------


 First call to EWALD:  gamma=   0.324
 Maximum number of real-space cells 3x 3x 3
 Maximum number of reciprocal cells 3x 3x 3

 FEWALD executed in parallel
    FEWALD:  cpu time    0.00: real time    0.00


----------------------------------------- Iteration    1(   1)  ---------------------------------------


    POTLOK:  cpu time    0.04: real time    0.04
    SETDIJ:  cpu time    0.02: real time    0.02
     EDDAV:  cpu time    0.40: real time    0.40
       DOS:  cpu time    0.00: real time    0.00
    --------------------------------------------
      LOOP:  cpu time    0.45: real time    0.48

 eigenvalue-minimisations  :    96
 total energy-change (2. order) :-0.1014410E+02  (-0.7956049E+03)
 number of electron      32.0000000 magnetization 
 augmentation part       32.0000000 magnetization 

 Free energy of the ion-electron system (eV)
  ---------------------------------------------------
  alpha Z        PSCENC =        12.68944982
  Ewald energy   TEWEN  =      -907.56678499
  -1/2 Hartree   DENC   =       -45.63644588
  -exchange  EXHF       =         0.00000000
  -V(xc)+E(xc)   XCENC  =       -76.79671621
  PAW double counting   =       265.93453375     -123.69690146
  entropy T*S    EENTRO =        -0.00021368
  eigenvalues    EBANDS =        38.55499705
  atomic energy  EATOM  =       826.37398168
  ---------------------------------------------------
  free energy    TOTEN  =       -10.14409992 eV

  energy without entropy =      -10.14388624  energy(sigma->0) =      -10.14399308


--------------------------------------------------------------------------------------------------------




 average (electrostatic) potential at core
  the test charge radii are     0.9892
  (the norm of the test charge is              1.0000)
       1 -84.3514       2 -84.3540       3 -84.3471       4 -84.3442       5 -84.3502
       6 -84.3554       7 -84.3538       8 -84.3489
 
 
 
 E-fermi :   6.6069     XC(G=0):  -9.5533     alpha+bet :-11.7379


 k-point   1 :       0.0000    0.0000    0.0000
  band No.  band energies     occupation 
      1      -6.5896      2.00000
      2      -2.4153      2.00000
      3      -2.2560      2.00000
      4      -2.1180      2.00000
      5      -2.0268      2.00000
      6      -1.8698      2.00000
      7      -1.6829      2.00000
      8       2.7412      2.00000
      9       2.8488      2.00000
     10       2.9937      2.00000
     11       3.1617      2.00000
     12       3.3437      2.00000
     13       4.0788      2.00000
     14       6.1400      2.00000
     15       6.3642      2.00000
     16       6.5637      1.99773
     17       6.6501      0.00227
     18       6.8057      0.00000
     19       6.9023      0.00000
     20       7.1735      0.00000
     21       7.3828      0.00000
     22       8.0448      0.00000
     23       8.9819      0.00000
     24       9.3776      0.00000
     25      10.4501      0.00000
     26      11.4514      0.00000
     27      13.5068      0.00000
     28      14.7719      0.00000
     29      16.5641      0.00000
     30      16.8920      0.00000
     31      17.3546      0.00000
     32      17.5926      0.00000
     33      17.9367      0.00000
     34      18.1326      0.00000
     35      18.4960      0.00000
     36      18.8738      0.00000
     37      19.3649      0.00000
     38      19.5036      0.00000
     39      19.8667      0.00000
     40      20.2525      0.00000
     41      21.0978      0.00000
     42      21.6872      0.00000
     43      22.1697      0.00000
     44      22.7615      0.00000
     45      23.9037      0.00000
     46      24.3996      0.00000
     47      24.8171      0.00000
     48      25.8360      0.00000


--------------------------------------------------------------------------------------------------------


 soft charge-density along one line, spin component           1
         0         1         2         3         4         5         6         7         8         9
 total charge-density along one line
 
 pseudopotential strength for first ion, spin component:           1
 18.662   0.000   0.000   0.000   0.000   0.000   0.000   0.000
  0.000   0.006   0.000   0.000   0.000   0.000   0.000   0.000
  0.000   0.000   4.216   0.000   0.000  -0.004   0.000   0.000
  0.000   0.000   0.000   4.216   0.000   0.000  -0.004   0.000
  0.000   0.000   0.000   0.000   4.216   0.000   0.000  -0.004
  0.000   0.000  -0.004   0.000   0.000   0.005   0.000   0.000
  0.000   0.000   0.000  -0.004   0.000   0.000   0.005   0.000
  0.000   0.000   0.000   0.000  -0.004   0.000   0.000   0.005
 total augmentation occupancy for first ion, spin component:           1
  2.000   0.000   0.000   0.000   0.000   0.000   0.000   0.000
  0.000   0.000   0.000   0.000   0.000   0.000   0.000   0.000
  0.000   0.000   0.667   0.000   0.000   0.000   0.000   0.000
  0.000   0.000   0.000   0.667   0.000   0.000   0.000   0.000
  0.000   0.000   0.000   0.000   0.667   0.000   0.000   0.000
  0.000   0.000   0.000   0.000   0.000   0.000   0.000   0.000
  0.000   0.000   0.000   0.000   0.000   0.000   0.000   0.000
  0.000   0.000   0.000   0.000   0.000   0.000   0.000   0.000


----------------------------------------- Iteration    1(   2)  ---------------------------------------


     EDDAV:  cpu time    0.97: real time    0.97
       DOS:  cpu time    0.00: real time    0.00
    --------------------------------------------
      LOOP:  cpu time    0.97: real time    0.98

 eigenvalue-minimisations  :   144
 total energy-change (2. order) :-0.2430664E+02  (-0.2430447E+02)
 number of electron      32.0000000 magnetization 
 augmentation part       32.0000000 magnetization 

 Free energy of the ion-electron system (eV)
  ---------------------------------------------------
  alpha Z        PSCENC =        12.68944982
  Ewald energy   TEWEN  =      -907.56678499
  -1/2 Hartree   DENC   =       -45.63644588
  -exchange  EXHF       =         0.00000000
  -V(xc)+E(xc)   XCENC  =       -76.79671621
  PAW double counting   =       265.93453375     -123.69690146
  entropy T*S    EENTRO =         0.00000000
  eigenvalues    EBANDS =        14.24813914
  atomic energy  EATOM  =       826.37398168
  ---------------------------------------------------
  free energy    TOTEN  =       -34.45074416 eV

  energy without entropy =      -34.45074416  energy(sigma->0) =      -34.45074416


--------------------------------------------------------------------------------------------------------




 average (electrostatic) potential at core
  the test charge radii are     0.9892
  (the norm of the test charge is              1.0000)
       1 -84.3514       2 -84.3540       3 -84.3471       4 -84.3442       5 -84.3502
       6 -84.3554       7 -84.3538       8 -84.3489
 
 
 
 E-fermi :   5.2505     XC(G=0):  -9.5533     alpha+bet :-11.7379


 k-point   1 :       0.0000    0.0000    0.0000
  band No.  band energies     occupation 
      1      -6.6372      2.00000
      2      -2.6464      2.00000
      3      -2.6389      2.00000
      4      -2.6301      2.00000
      5      -2.6267      2.00000
      6      -2.6196      2.00000
      7      -2.6133      2.00000
      8       2.3738      2.00000
      9       2.3769      2.00000
     10       2.3806      2.00000
     11       2.3829      2.00000
     12       2.3871      2.00000
     13       2.3946      2.00000
     14       5.0696      2.00000
     15       5.0805      2.00000
     16       5.0902      2.00000
     17       6.1447      0.00000
     18       6.1500      0.00000
     19       6.1551      0.00000
     20       6.1602      0.00000
     21       6.1605      0.00000
     22       6.1692      0.00000
     23       7.8523      0.00000
     24       7.8576      0.00000
     25       7.8617      0.00000
     26       8.1266      0.00000
     27      13.2005      0.00000
     28      13.2624      0.00000
     29      13.2699      0.00000
     30      15.1032      0.00000
     31      15.1289      0.00000
     32      15.1671      0.00000
     33      15.2520      0.00000
     34      15.3155      0.00000
     35      15.6367      0.00000
     36      16.3770      0.00000
     37      16.4228      0.00000
     38      16.4480      0.00000
     39      16.5431      0.00000
     40      16.7174      0.00000
     41      16.7496      0.00000
     42      16.7700      0.00000
     43      16.8702      0.00000
     44      17.2345      0.00000
     45      17.9134      0.00000
     46      17.9532      0.00000
     47      17.9876      0.00000
     48      18.0196      0.00000


--------------------------------------------------------------------------------------------------------


 soft charge-density along one line, spin component           1
         0         1         2         3         4         5         6         7         8         9
 total charge-density along one line
 
 pseudopotential strength for first ion, spin component:           1
 18.662   0.000   0.000   0.000   0.000   0.000   0.000   0.000
  0.000   0.006   0.000   0.000   0.000   0.000   0.000   0.000
  0.000   0.000   4.216   0.000   0.000  -0.004   0.000   0.000
  0.000   0.000   0.000   4.216   0.000   0.000  -0.004   0.000
  0.000   0.000   0.000   0.000   4.216   0.000   0.000  -0.004
  0.000   0.000  -0.004   0.000   0.000   0.005   0.000   0.000
  0.000   0.000   0.000  -0.004   0.000   0.000   0.005   0.000
  0.000   0.000   0.000   0.000  -0.004   0.000   0.000   0.005
 total augmentation occupancy for first ion, spin component:           1
  2.000   0.000   0.000   0.000   0.000   0.000   0.000   0.000
  0.000   0.000   0.000   0.000   0.000   0.000   0.000   0.000
  0.000   0.000   0.667   0.000   0.000   0.000   0.000   0.000
  0.000   0.000   0.000   0.667   0.000   0.000   0.000   0.000
  0.000   0.000   0.000   0.000   0.667   0.000   0.000   0.000
  0.000   0.000   0.000   0.000   0.000   0.000   0.000   0.000
  0.000   0.000   0.000   0.000   0.000   0.000   0.000   0.000
  0.000   0.000   0.000   0.000   0.000   0.000   0.000   0.000


----------------------------------------- Iteration    1(   3)  ---------------------------------------


     EDDAV:  cpu time    0.39: real time    0.39
       DOS:  cpu time    0.00: real time    0.00
    --------------------------------------------
      LOOP:  cpu time    0.39: real time    0.40

 eigenvalue-minimisations  :    96
 total energy-change (2. order) :-0.1669744E+00  (-0.1669744E+00)
 number of electron      32.0000000 magnetization 
 augmentation part       32.0000000 magnetization 

 Free energy of the ion-electron system (eV)
  ---------------------------------------------------
  alpha Z        PSCENC =        12.68944982
  Ewald energy   TEWEN  =      -907.56678499
  -1/2 Hartree   DENC   =       -45.63644588
  -exchange  EXHF       =         0.00000000
  -V(xc)+E(xc)   XCENC  =       -76.79671621
  PAW double counting   =       265.93453375     -123.69690146
  entropy T*S    EENTRO =         0.00000000
  eigenvalues    EBANDS =        14.08116469
  atomic energy  EATOM  =       826.37398168
  ---------------------------------------------------
  free energy    TOTEN  =       -34.61771860 eV

  energy without entropy =      -34.61771860  energy(sigma->0) =      -34.61771860


--------------------------------------------------------------------------------------------------------




 average (electrostatic) potential at core
  the test charge radii are     0.9892
  (the norm of the test charge is              1.0000)
       1 -84.3514       2 -84.3540       3 -84.3471       4 -84.3442       5 -84.3502
       6 -84.3554       7 -84.3538       8 -84.3489
 
 
 
 E-fermi :   5.2121     XC(G=0):  -9.5533     alpha+bet :-11.7379


 k-point   1 :       0.0000    0.0000    0.0000
  band No.  band energies     occupation 
      1      -6.6372      2.00000
      2      -2.6485      2.00000
      3      -2.6411      2.00000
      4      -2.6320      2.00000
      5      -2.6288      2.00000
      6      -2.6221      2.00000
      7      -2.6156      2.00000
      8       2.3698      2.00000
      9       2.3746      2.00000
     10       2.3768      2.00000
     11       2.3796      2.00000
     12       2.3805      2.00000
     13       2.3845      2.00000
     14       5.0621      2.00000
     15       5.0677      2.00000
     16       5.0702      2.00000
     17       6.1409      0.00000
     18       6.1470      0.00000
     19       6.1527      0.00000
     20       6.1560      0.00000
     21       6.1578      0.00000
     22       6.1648      0.00000
     23       7.8475      0.00000
     24       7.8490      0.00000
     25       7.8521      0.00000
     26       8.1178      0.00000
     27      13.1844      0.00000
     28      13.1867      0.00000
     29      13.2693      0.00000
     30      15.0804      0.00000
     31      15.0878      0.00000
     32      15.0924      0.00000
     33      15.1134      0.00000
     34      15.1301      0.00000
     35      15.1816      0.00000
     36      16.3124      0.00000
     37      16.3243      0.00000
     38      16.3432      0.00000
     39      16.3702      0.00000
     40      16.4295      0.00000
     41      16.4948      0.00000
     42      16.7133      0.00000
     43      16.7155      0.00000
     44      16.8167      0.00000
     45      17.8834      0.00000
     46      17.8912      0.00000
     47      17.9178      0.00000
     48      17.9400      0.00000


--------------------------------------------------------------------------------------------------------


 soft charge-density along one line, spin component           1
         0         1         2         3         4         5         6         7         8         9
 total charge-density along one line
 
 pseudopotential strength for first ion, spin component:           1
 18.662   0.000   0.000   0.000   0.000   0.000   0.000   0.000
  0.000   0.006   0.000   0.000   0.000   0.000   0.000   0.000
  0.000   0.000   4.216   0.000   0.000  -0.004   0.000   0.000
  0.000   0.000   0.000   4.216   0.000   0.000  -0.004   0.000
  0.000   0.000   0.000   0.000   4.216   0.000   0.000  -0.004
  0.000   0.000  -0.004   0.000   0.000   0.005   0.000   0.000
  0.000   0.000   0.000  -0.004   0.000   0.000   0.005   0.000
  0.000   0.000   0.000   0.000  -0.004   0.000   0.000   0.005
 total augmentation occupancy for first ion, spin component:           1
  2.000   0.000   0.000   0.000   0.000   0.000   0.000   0.000
  0.000   0.000   0.000   0.000   0.000   0.000   0.000   0.000
  0.000   0.000   0.667   0.000   0.000   0.000   0.000   0.000
  0.000   0.000   0.000   0.667   0.000   0.000   0.000   0.000
  0.000   0.000   0.000   0.000   0.667   0.000   0.000   0.000
  0.000   0.000   0.000   0.000   0.000   0.000   0.000   0.000
  0.000   0.000   0.000   0.000   0.000   0.000   0.000   0.000
  0.000   0.000   0.000   0.000   0.000   0.000   0.000   0.000


----------------------------------------- Iteration    1(   4)  ---------------------------------------


     EDDAV:  cpu time    2.01: real time    2.01
       DOS:  cpu time    0.00: real time    0.00
    --------------------------------------------
      LOOP:  cpu time    2.01: real time    2.02

 eigenvalue-minimisations  :   192
 total energy-change (2. order) :-0.3540673E-03  (-0.3540673E-03)
 number of electron      32.0000000 magnetization 
 augmentation part       32.0000000 magnetization 

 Free energy of the ion-electron system (eV)
  ---------------------------------------------------
  alpha Z        PSCENC =        12.68944982
  Ewald energy   TEWEN  =      -907.56678499
  -1/2 Hartree   DENC   =       -45.63644588
  -exchange  EXHF       =         0.00000000
  -V(xc)+E(xc)   XCENC  =       -76.79671621
  PAW double counting   =       265.93453375     -123.69690146
  entropy T*S    EENTRO =         0.00000000
  eigenvalues    EBANDS =        14.08081062
  atomic energy  EATOM  =       826.37398168
  ---------------------------------------------------
  free energy    TOTEN  =       -34.61807267 eV

  energy without entropy =      -34.61807267  energy(sigma->0) =      -34.61807267


--------------------------------------------------------------------------------------------------------




 average (electrostatic) potential at core
  the test charge radii are     0.9892
  (the norm of the test charge is              1.0000)
       1 -84.3514       2 -84.3540       3 -84.3471       4 -84.3442       5 -84.3502
       6 -84.3554       7 -84.3538       8 -84.3489
 
 
 
 E-fermi :   5.2005     XC(G=0):  -9.5533     alpha+bet :-11.7379


 k-point   1 :       0.0000    0.0000    0.0000
  band No.  band energies     occupation 
      1      -6.6372      2.00000
      2      -2.6485      2.00000
      3      -2.6411      2.00000
      4      -2.6320      2.00000
      5      -2.6288      2.00000
      6      -2.6221      2.00000
      7      -2.6156      2.00000
      8       2.3698      2.00000
      9       2.3746      2.00000
     10       2.3768      2.00000
     11       2.3796      2.00000
     12       2.3805      2.00000
     13       2.3845      2.00000
     14       5.0621      2.00000
     15       5.0677      2.00000
     16       5.0702      2.00000
     17       6.1409      0.00000
     18       6.1470      0.00000
     19       6.1527      0.00000
     20       6.1560      0.00000
     21       6.1578      0.00000
     22       6.1648      0.00000
     23       7.8475      0.00000
     24       7.8490      0.00000
     25       7.8520      0.00000
     26       8.1178      0.00000
     27      13.1837      0.00000
     28      13.1837      0.00000
     29      13.2693      0.00000
     30      15.0746      0.00000
     31      15.0793      0.00000
     32      15.0828      0.00000
     33      15.0853      0.00000
     34      15.0905      0.00000
     35      15.0961      0.00000
     36      16.2912      0.00000
     37      16.3044      0.00000
     38      16.3080      0.00000
     39      16.3154      0.00000
     40      16.3159      0.00000
     41      16.3278      0.00000
     42      16.7022      0.00000
     43      16.7039      0.00000
     44      16.7071      0.00000
     45      17.8735      0.00000
     46      17.8768      0.00000
     47      17.8841      0.00000
     48      17.8926      0.00000


--------------------------------------------------------------------------------------------------------


 soft charge-density along one line, spin component           1
         0         1         2         3         4         5         6         7         8         9
 total charge-density along one line
 
 pseudopotential strength for first ion, spin component:           1
 18.662   0.000   0.000   0.000   0.000   0.000   0.000   0.000
  0.000   0.006   0.000   0.000   0.000   0.000   0.000   0.000
  0.000   0.000   4.216   0.000   0.000  -0.004   0.000   0.000
  0.000   0.000   0.000   4.216   0.000   0.000  -0.004   0.000
  0.000   0.000   0.000   0.000   4.216   0.000   0.000  -0.004
  0.000   0.000  -0.004   0.000   0.000   0.005   0.000   0.000
  0.000   0.000   0.000  -0.004   0.000   0.000   0.005   0.000
  0.000   0.000   0.000   0.000  -0.004   0.000   0.000   0.005
 total augmentation occupancy for first ion, spin component:           1
  2.000   0.000   0.000   0.000   0.000   0.000   0.000   0.000
  0.000   0.000   0.000   0.000   0.000   0.000   0.000   0.000
  0.000   0.000   0.667   0.000   0.000   0.000   0.000   0.000
  0.000   0.000   0.000   0.667   0.000   0.000   0.000   0.000
  0.000   0.000   0.000   0.000   0.667   0.000   0.000   0.000
  0.000   0.000   0.000   0.000   0.000   0.000   0.000   0.000
  0.000   0.000   0.000   0.000   0.000   0.000   0.000   0.000
  0.000   0.000   0.000   0.000   0.000   0.000   0.000   0.000


----------------------------------------- Iteration    1(   5)  ---------------------------------------


     EDDAV:  cpu time    0.38: real time    0.38
       DOS:  cpu time    0.00: real time    0.00
    CHARGE:  cpu time    0.02: real time    0.02
    MIXING:  cpu time    0.00: real time    0.00
    --------------------------------------------
      LOOP:  cpu time    0.41: real time    0.42

 eigenvalue-minimisations  :    96
 total energy-change (2. order) :-0.3034643E-08  (-0.3034994E-08)
 number of electron      31.9999999 magnetization 
 augmentation part       -1.8053348 magnetization 

 Broyden mixing:
  rms(total) = 0.79306E+00    rms(broyden)= 0.79301E+00
  rms(prec ) = 0.15229E+01
  weight for this iteration     100.00

 Free energy of the ion-electron system (eV)
  ---------------------------------------------------
  alpha Z        PSCENC =        12.68944982
  Ewald energy   TEWEN  =      -907.56678499
  -1/2 Hartree   DENC   =       -45.63644588
  -exchange  EXHF       =         0.00000000
  -V(xc)+E(xc)   XCENC  =       -76.79671621
  PAW double counting   =       265.93453375     -123.69690146
  entropy T*S    EENTRO =         0.00000000
  eigenvalues    EBANDS =        14.08081062
  atomic energy  EATOM  =       826.37398168
  ---------------------------------------------------
  free energy    TOTEN  =       -34.61807267 eV

  energy without entropy =      -34.61807267  energy(sigma->0) =      -34.61807267


--------------------------------------------------------------------------------------------------------




 average (electrostatic) potential at core
  the test charge radii are     0.9892
  (the norm of the test charge is              1.0000)
       1 -84.3514       2 -84.3540       3 -84.3471       4 -84.3442       5 -84.3502
       6 -84.3554       7 -84.3538       8 -84.3489
 
 
 
 E-fermi :   5.1955     XC(G=0):  -9.5533     alpha+bet :-11.7379


 k-point   1 :       0.0000    0.0000    0.0000
  band No.  band energies     occupation 
      1      -6.6372      2.00000
      2      -2.6485      2.00000
      3      -2.6411      2.00000
      4      -2.6320      2.00000
      5      -2.6288      2.00000
      6      -2.6221      2.00000
      7      -2.6156      2.00000
      8       2.3698      2.00000
      9       2.3746      2.00000
     10       2.3768      2.00000
     11       2.3796      2.00000
     12       2.3805      2.00000
     13       2.3845      2.00000
     14       5.0621      2.00000
     15       5.0677      2.00000
     16       5.0702      2.00000
     17       6.1409      0.00000
     18       6.1470      0.00000
     19       6.1527      0.00000
     20       6.1560      0.00000
     21       6.1578      0.00000
     22       6.1648      0.00000
     23       7.8475      0.00000
     24       7.8490      0.00000
     25       7.8520      0.00000
     26       8.1178      0.00000
     27      13.1837      0.00000
     28      13.1837      0.00000
     29      13.2693      0.00000
     30      15.0745      0.00000
     31      15.0793      0.00000
     32      15.0827      0.00000
     33      15.0852      0.00000
     34      15.0904      0.00000
     35      15.0961      0.00000
     36      16.2908      0.00000
     37      16.3041      0.00000
     38      16.3078      0.00000
     39      16.3151      0.00000
     40      16.3156      0.00000
     41      16.3273      0.00000
     42      16.7021      0.00000
     43      16.7037      0.00000
     44      16.7070      0.00000
     45      17.8692      0.00000
     46      17.8722      0.00000
     47      17.8794      0.00000
     48      17.8823      0.00000


--------------------------------------------------------------------------------------------------------


 soft charge-density along one line, spin component           1
         0         1         2         3         4         5         6         7         8         9
 total charge-density along one line
 
 pseudopotential strength for first ion, spin component:           1
 18.662   0.000   0.000   0.000   0.000   0.000   0.000   0.000
  0.000   0.006   0.000   0.000   0.000   0.000   0.000   0.000
  0.000   0.000   4.216   0.000   0.000  -0.004   0.000   0.000
  0.000   0.000   0.000   4.216   0.000   0.000  -0.004   0.000
  0.000   0.000   0.000   0.000   4.216   0.000   0.000  -0.004
  0.000   0.000  -0.004   0.000   0.000   0.005   0.000   0.000
  0.000   0.000   0.000  -0.004   0.000   0.000   0.005   0.000
  0.000   0.000   0.000   0.000  -0.004   0.000   0.000   0.005
 total augmentation occupancy for first ion, spin component:           1
  1.380  -1.052   0.001  -0.002   0.002  -0.001   0.002  -0.002
 -1.052   0.919   0.000   0.001  -0.002   0.001  -0.002   0.002
  0.001   0.000   1.165   0.001  -0.001  -0.758  -0.001   0.002
 -0.002   0.001   0.001   1.166   0.000  -0.001  -0.759  -0.001
  0.002  -0.002  -0.001   0.000   1.163   0.002  -0.001  -0.757
 -0.001   0.001  -0.758  -0.001   0.002   0.570   0.001  -0.002
  0.002  -0.002  -0.001  -0.759  -0.001   0.001   0.570   0.001
 -0.002   0.002   0.002  -0.001  -0.757  -0.002   0.001   0.569


----------------------------------------- Iteration    1(   6)  ---------------------------------------


    POTLOK:  cpu time    0.02: real time    0.02
    SETDIJ:  cpu time    0.02: real time    0.02
    EDDIAG:  cpu time    0.03: real time    0.03
  RMM-DIIS:  cpu time    0.02: real time    0.02
    ORTHCH:  cpu time    0.00: real time    0.01
       DOS:  cpu time    0.00: real time    0.00
    CHARGE:  cpu time    0.02: real time    0.02
    MIXING:  cpu time    0.00: real time    0.00
    --------------------------------------------
      LOOP:  cpu time    0.13: real time    0.13

 eigenvalue-minimisations  :    96
 total energy-change (2. order) : 0.1001707E+01  (-0.3197531E-01)
 number of electron      31.9999999 magnetization 
 augmentation part       -1.7684096 magnetization 

 Broyden mixing:
  rms(total) = 0.47399E+00    rms(broyden)= 0.47399E+00
  rms(prec ) = 0.91065E+00
  weight for this iteration     100.00

 eigenvalues of (default mixing * dielectric matrix)
  average eigenvalue GAMMA=   2.4573
  2.4573

 Free energy of the ion-electron system (eV)
  ---------------------------------------------------
  alpha Z        PSCENC =        12.68944982
  Ewald energy   TEWEN  =      -907.56678499
  -1/2 Hartree   DENC   =       -54.68298059
  -exchange  EXHF       =         0.00000000
  -V(xc)+E(xc)   XCENC  =       -75.44941193
  PAW double counting   =       286.06062335     -144.35893020
  entropy T*S    EENTRO =         0.00000000
  eigenvalues    EBANDS =        23.31768731
  atomic energy  EATOM  =       826.37398168
  ---------------------------------------------------
  free energy    TOTEN  =       -33.61636555 eV

  energy without entropy =      -33.61636555  energy(sigma->0) =      -33.61636555


--------------------------------------------------------------------------------------------------------




 average (electrostatic) potential at core
  the test charge radii are     0.9892
  (the norm of the test charge is              1.0000)
       1 -83.8332       2 -83.8345       3 -83.8311       4 -83.8296       5 -83.8326
       6 -83.8351       7 -83.8344       8 -83.8320
 
 
 
 E-fermi :   5.5476     XC(G=0):  -9.4504     alpha+bet :-11.7379


 k-point   1 :       0.0000    0.0000    0.0000
  band No.  band energies     occupation 
      1      -6.3788      2.00000
      2      -2.3470      2.00000
      3      -2.3409      2.00000
      4      -2.3331      2.00000
      5      -2.3301      2.00000
      6      -2.3245      2.00000
      7      -2.3191      2.00000
      8       2.6318      2.00000
      9       2.6362      2.00000
     10       2.6379      2.00000
     11       2.6405      2.00000
     12       2.6411      2.00000
     13       2.6447      2.00000
     14       5.3956      2.00000
     15       5.4011      2.00000
     16       5.4035      2.00000
     17       6.2567      0.00000
     18       6.2621      0.00000
     19       6.2672      0.00000
     20       6.2702      0.00000
     21       6.2715      0.00000
     22       6.2780      0.00000
     23       8.0549      0.00000
     24       8.0564      0.00000
     25       8.0595      0.00000
     26       8.4862      0.00000
     27      13.3050      0.00000
     28      13.3568      0.00000
     29      13.3569      0.00000
     30      15.3715      0.00000
     31      15.3761      0.00000
     32      15.3789      0.00000
     33      15.3814      0.00000
     34      15.3859      0.00000
     35      15.3914      0.00000
     36      16.5283      0.00000
     37      16.5405      0.00000
     38      16.5438      0.00000
     39      16.5505      0.00000
     40      16.5509      0.00000
     41      16.5616      0.00000
     42      16.7467      0.00000
     43      16.7483      0.00000
     44      16.7517      0.00000
     45      18.1576      0.00000
     46      18.1609      0.00000
     47      18.1687      0.00000
     48      18.1716      0.00000


--------------------------------------------------------------------------------------------------------


 soft charge-density along one line, spin component           1
         0         1         2         3         4         5         6         7         8         9
 total charge-density along one line
 
 pseudopotential strength for first ion, spin component:           1
 18.635  -0.001   0.000   0.000   0.000   0.000   0.000   0.000
 -0.001   0.006   0.000   0.000   0.000   0.000   0.000   0.000
  0.000   0.000   4.221   0.000   0.000  -0.004   0.000   0.000
  0.000   0.000   0.000   4.221   0.000   0.000  -0.004   0.000
  0.000   0.000   0.000   0.000   4.221   0.000   0.000  -0.004
  0.000   0.000  -0.004   0.000   0.000   0.005   0.000   0.000
  0.000   0.000   0.000  -0.004   0.000   0.000   0.005   0.000
  0.000   0.000   0.000   0.000  -0.004   0.000   0.000   0.005
 total augmentation occupancy for first ion, spin component:           1
  1.351  -1.090   0.002  -0.002   0.002  -0.001   0.003  -0.002
 -1.090   0.998   0.001   0.001  -0.001   0.001  -0.003   0.002
  0.002   0.001   1.147   0.001  -0.001  -0.782  -0.001   0.002
 -0.002   0.001   0.001   1.148   0.001  -0.001  -0.783  -0.001
  0.002  -0.001  -0.001   0.001   1.145   0.002  -0.001  -0.781
 -0.001   0.001  -0.782  -0.001   0.002   0.608   0.001  -0.002
  0.003  -0.003  -0.001  -0.783  -0.001   0.001   0.608   0.001
 -0.002   0.002   0.002  -0.001  -0.781  -0.002   0.001   0.607


----------------------------------------- Iteration    1(   7)  ---------------------------------------


    POTLOK:  cpu time    0.02: real time    0.02
    SETDIJ:  cpu time    0.02: real time    0.02
    EDDIAG:  cpu time    0.02: real time    0.02
  RMM-DIIS:  cpu time    0.03: real time    0.03
    ORTHCH:  cpu time    0.00: real time    0.01
       DOS:  cpu time    0.00: real time    0.00
    CHARGE:  cpu time    0.02: real time    0.02
    MIXING:  cpu time    0.00: real time    0.00
    --------------------------------------------
      LOOP:  cpu time    0.12: real time    0.13

 eigenvalue-minimisations  :    96
 total energy-change (2. order) : 0.4246586E+00  (-0.7387195E-01)
 number of electron      31.9999999 magnetization 
 augmentation part       -1.7214581 magnetization 

 Broyden mixing:
  rms(total) = 0.46254E-01    rms(broyden)= 0.46244E-01
  rms(prec ) = 0.78465E-01
  weight for this iteration     100.00

 eigenvalues of (default mixing * dielectric matrix)
  average eigenvalue GAMMA=   2.5299
  2.5299  2.5299

 Free energy of the ion-electron system (eV)
  ---------------------------------------------------
  alpha Z        PSCENC =        12.68944982
  Ewald energy   TEWEN  =      -907.56678499
  -1/2 Hartree   DENC   =       -70.51375251
  -exchange  EXHF       =         0.00000000
  -V(xc)+E(xc)   XCENC  =       -73.00930342
  PAW double counting   =       313.72435791     -172.73635962
  entropy T*S    EENTRO =         0.00000000
  eigenvalues    EBANDS =        37.84670420
  atomic energy  EATOM  =       826.37398168
  ---------------------------------------------------
  free energy    TOTEN  =       -33.19170694 eV

  energy without entropy =      -33.19170694  energy(sigma->0) =      -33.19170694


--------------------------------------------------------------------------------------------------------




 average (electrostatic) potential at core
  the test charge radii are     0.9892
  (the norm of the test charge is              1.0000)
       1 -83.1455       2 -83.1463       3 -83.1446       4 -83.1438       5 -83.1451
       6 -83.1473       7 -83.1465       8 -83.1453
 
 
 
 E-fermi :   6.0957     XC(G=0):  -9.2018     alpha+bet :-11.7379


 k-point   1 :       0.0000    0.0000    0.0000
  band No.  band energies     occupation 
      1      -5.9621      2.00000
      2      -1.8784      2.00000
      3      -1.8731      2.00000
      4      -1.8667      2.00000
      5      -1.8639      2.00000
      6      -1.8593      2.00000
      7      -1.8547      2.00000
      8       3.0451      2.00000
      9       3.0493      2.00000
     10       3.0505      2.00000
     11       3.0530      2.00000
     12       3.0531      2.00000
     13       3.0567      2.00000
     14       5.9203      2.00000
     15       5.9256      2.00000
     16       5.9280      2.00000
     17       6.5167      0.00000
     18       6.5214      0.00000
     19       6.5256      0.00000
     20       6.5286      0.00000
     21       6.5288      0.00000
     22       6.5349      0.00000
     23       8.3800      0.00000
     24       8.3815      0.00000
     25       8.3847      0.00000
     26       9.0452      0.00000
     27      13.6013      0.00000
     28      13.6204      0.00000
     29      13.6204      0.00000
     30      15.8223      0.00000
     31      15.8264      0.00000
     32      15.8291      0.00000
     33      15.8314      0.00000
     34      15.8354      0.00000
     35      15.8404      0.00000
     36      16.9006      0.00000
     37      16.9023      0.00000
     38      16.9060      0.00000
     39      16.9502      0.00000
     40      16.9604      0.00000
     41      16.9636      0.00000
     42      16.9694      0.00000
     43      16.9701      0.00000
     44      16.9791      0.00000
     45      18.6548      0.00000
     46      18.6613      0.00000
     47      18.6705      0.00000
     48      18.6728      0.00000


--------------------------------------------------------------------------------------------------------


 soft charge-density along one line, spin component           1
         0         1         2         3         4         5         6         7         8         9
 total charge-density along one line
 
 pseudopotential strength for first ion, spin component:           1
 18.596  -0.001   0.000   0.000   0.000   0.000   0.000   0.000
 -0.001   0.006   0.000   0.000   0.000   0.000   0.000   0.000
  0.000   0.000   4.227   0.000   0.000  -0.005   0.000   0.000
  0.000   0.000   0.000   4.227   0.000   0.000  -0.005   0.000
  0.000   0.000   0.000   0.000   4.227   0.000   0.000  -0.005
  0.000   0.000  -0.005   0.000   0.000   0.005   0.000   0.000
  0.000   0.000   0.000  -0.005   0.000   0.000   0.005   0.000
  0.000   0.000   0.000   0.000  -0.005   0.000   0.000   0.005
 total augmentation occupancy for first ion, spin component:           1
  1.315  -1.112   0.002  -0.002   0.002  -0.002   0.003  -0.003
 -1.112   1.058   0.001   0.000   0.000   0.001  -0.003   0.002
  0.002   0.001   1.122   0.002  -0.002  -0.805  -0.001   0.002
 -0.002   0.000   0.002   1.123   0.001  -0.001  -0.806  -0.001
  0.002   0.000  -0.002   0.001   1.121   0.002  -0.001  -0.804
 -0.002   0.001  -0.805  -0.001   0.002   0.653   0.001  -0.002
  0.003  -0.003  -0.001  -0.806  -0.001   0.001   0.652   0.001
 -0.003   0.002   0.002  -0.001  -0.804  -0.002   0.001   0.651


----------------------------------------- Iteration    1(   8)  ---------------------------------------


    POTLOK:  cpu time    0.02: real time    0.02
    SETDIJ:  cpu time    0.02: real time    0.02
    EDDIAG:  cpu time    0.02: real time    0.02
  RMM-DIIS:  cpu time    0.03: real time    0.03
    ORTHCH:  cpu time    0.01: real time    0.01
       DOS:  cpu time    0.00: real time    0.00
    CHARGE:  cpu time    0.02: real time    0.02
    MIXING:  cpu time    0.00: real time    0.00
    --------------------------------------------
      LOOP:  cpu time    0.12: real time    0.12

 eigenvalue-minimisations  :    96
 total energy-change (2. order) :-0.3197466E-01  (-0.2159526E-02)
 number of electron      31.9999999 magnetization 
 augmentation part       -1.7275446 magnetization 

 Broyden mixing:
  rms(total) = 0.75025E-02    rms(broyden)= 0.75020E-02
  rms(prec ) = 0.17979E-01
  weight for this iteration     100.00

 eigenvalues of (default mixing * dielectric matrix)
  average eigenvalue GAMMA=   2.1204
  1.2720  2.8639  2.2253

 Free energy of the ion-electron system (eV)
  ---------------------------------------------------
  alpha Z        PSCENC =        12.68944982
  Ewald energy   TEWEN  =      -907.56678499
  -1/2 Hartree   DENC   =       -70.39880344
  -exchange  EXHF       =         0.00000000
  -V(xc)+E(xc)   XCENC  =       -72.96574502
  PAW double counting   =       307.36504077     -166.19231563
  entropy T*S    EENTRO =         0.00000000
  eigenvalues    EBANDS =        37.47149521
  atomic energy  EATOM  =       826.37398168
  ---------------------------------------------------
  free energy    TOTEN  =       -33.22368160 eV

  energy without entropy =      -33.22368160  energy(sigma->0) =      -33.22368160


--------------------------------------------------------------------------------------------------------




 average (electrostatic) potential at core
  the test charge radii are     0.9892
  (the norm of the test charge is              1.0000)
       1 -83.2490       2 -83.2508       3 -83.2459       4 -83.2436       5 -83.2480
       6 -83.2521       7 -83.2509       8 -83.2473
 
 
 
 E-fermi :   6.0346     XC(G=0):  -9.1504     alpha+bet :-11.7379


 k-point   1 :       0.0000    0.0000    0.0000
  band No.  band energies     occupation 
      1      -5.9632      2.00000
      2      -1.8914      2.00000
      3      -1.8854      2.00000
      4      -1.8782      2.00000
      5      -1.8753      2.00000
      6      -1.8701      2.00000
      7      -1.8649      2.00000
      8       3.0330      2.00000
      9       3.0376      2.00000
     10       3.0389      2.00000
     11       3.0416      2.00000
     12       3.0418      2.00000
     13       3.0458      2.00000
     14       5.9042      2.00000
     15       5.9095      2.00000
     16       5.9119      2.00000
     17       6.5671      0.00000
     18       6.5720      0.00000
     19       6.5763      0.00000
     20       6.5793      0.00000
     21       6.5802      0.00000
     22       6.5862      0.00000
     23       8.3693      0.00000
     24       8.3708      0.00000
     25       8.3740      0.00000
     26       9.0381      0.00000
     27      13.6064      0.00000
     28      13.6064      0.00000
     29      13.7782      0.00000
     30      15.8076      0.00000
     31      15.8114      0.00000
     32      15.8145      0.00000
     33      15.8167      0.00000
     34      15.8212      0.00000
     35      15.8259      0.00000
     36      16.9365      0.00000
     37      16.9387      0.00000
     38      16.9425      0.00000
     39      16.9571      0.00000
     40      16.9667      0.00000
     41      16.9702      0.00000
     42      16.9762      0.00000
     43      16.9772      0.00000
     44      16.9862      0.00000
     45      18.6914      0.00000
     46      18.6994      0.00000
     47      18.7088      0.00000
     48      18.7109      0.00000


--------------------------------------------------------------------------------------------------------


 soft charge-density along one line, spin component           1
         0         1         2         3         4         5         6         7         8         9
 total charge-density along one line
 
 pseudopotential strength for first ion, spin component:           1
 18.599  -0.001   0.000   0.000   0.000   0.000   0.000   0.000
 -0.001   0.006   0.000   0.000   0.000   0.000   0.000   0.000
  0.000   0.000   4.224   0.000   0.000  -0.005   0.000   0.000
  0.000   0.000   0.000   4.224   0.000   0.000  -0.005   0.000
  0.000   0.000   0.000   0.000   4.224   0.000   0.000  -0.005
  0.000   0.000  -0.005   0.000   0.000   0.005   0.000   0.000
  0.000   0.000   0.000  -0.005   0.000   0.000   0.005   0.000
  0.000   0.000   0.000   0.000  -0.005   0.000   0.000   0.005
 total augmentation occupancy for first ion, spin component:           1
  1.320  -1.092   0.002  -0.002   0.002  -0.001   0.003  -0.003
 -1.092   1.021   0.001   0.001  -0.001   0.001  -0.003   0.002
  0.002   0.001   1.123   0.001  -0.001  -0.801  -0.001   0.002
 -0.002   0.001   0.001   1.124   0.001  -0.001  -0.802  -0.001
  0.002  -0.001  -0.001   0.001   1.122   0.002  -0.001  -0.800
 -0.001   0.001  -0.801  -0.001   0.002   0.647   0.001  -0.002
  0.003  -0.003  -0.001  -0.802  -0.001   0.001   0.648   0.001
 -0.003   0.002   0.002  -0.001  -0.800  -0.002   0.001   0.646


----------------------------------------- Iteration    1(   9)  ---------------------------------------


    POTLOK:  cpu time    0.02: real time    0.02
    SETDIJ:  cpu time    0.02: real time    0.02
    EDDIAG:  cpu time    0.02: real time    0.02
  RMM-DIIS:  cpu time    0.04: real time    0.05
    ORTHCH:  cpu time    0.00: real time    0.01
       DOS:  cpu time    0.00: real time    0.00
    CHARGE:  cpu time    0.02: real time    0.02
    MIXING:  cpu time    0.00: real time    0.00
    --------------------------------------------
      LOOP:  cpu time    0.13: real time    0.14

 eigenvalue-minimisations  :   106
 total energy-change (2. order) :-0.1135989E-02  (-0.1264765E-03)
 number of electron      31.9999999 magnetization 
 augmentation part       -1.7274630 magnetization 

 Broyden mixing:
  rms(total) = 0.41757E-02    rms(broyden)= 0.41756E-02
  rms(prec ) = 0.68456E-02
  weight for this iteration     100.00

 eigenvalues of (default mixing * dielectric matrix)
  average eigenvalue GAMMA=   2.2827
  0.9852  3.1933  2.6609  2.2915

 Free energy of the ion-electron system (eV)
  ---------------------------------------------------
  alpha Z        PSCENC =        12.68944982
  Ewald energy   TEWEN  =      -907.56678499
  -1/2 Hartree   DENC   =       -70.79542455
  -exchange  EXHF       =         0.00000000
  -V(xc)+E(xc)   XCENC  =       -72.90651427
  PAW double counting   =       307.71581146     -166.55349050
  entropy T*S    EENTRO =         0.00000000
  eigenvalues    EBANDS =        37.81815377
  atomic energy  EATOM  =       826.37398168
  ---------------------------------------------------
  free energy    TOTEN  =       -33.22481759 eV

  energy without entropy =      -33.22481759  energy(sigma->0) =      -33.22481759


--------------------------------------------------------------------------------------------------------




 average (electrostatic) potential at core
  the test charge radii are     0.9892
  (the norm of the test charge is              1.0000)
       1 -83.2347       2 -83.2362       3 -83.2322       4 -83.2304       5 -83.2340
       6 -83.2368       7 -83.2360       8 -83.2332
 
 
 
 E-fermi :   6.0493     XC(G=0):  -9.1363     alpha+bet :-11.7379


 k-point   1 :       0.0000    0.0000    0.0000
  band No.  band energies     occupation 
      1      -5.9520      2.00000
      2      -1.8797      2.00000
      3      -1.8740      2.00000
      4      -1.8671      2.00000
      5      -1.8642      2.00000
      6      -1.8592      2.00000
      7      -1.8542      2.00000
      8       3.0431      2.00000
      9       3.0475      2.00000
     10       3.0488      2.00000
     11       3.0514      2.00000
     12       3.0516      2.00000
     13       3.0554      2.00000
     14       5.9163      2.00000
     15       5.9216      2.00000
     16       5.9240      2.00000
     17       6.5810      0.00000
     18       6.5860      0.00000
     19       6.5904      0.00000
     20       6.5933      0.00000
     21       6.5943      0.00000
     22       6.6003      0.00000
     23       8.3770      0.00000
     24       8.3785      0.00000
     25       8.3816      0.00000
     26       9.0526      0.00000
     27      13.6116      0.00000
     28      13.6117      0.00000
     29      13.8105      0.00000
     30      15.8181      0.00000
     31      15.8221      0.00000
     32      15.8250      0.00000
     33      15.8272      0.00000
     34      15.8315      0.00000
     35      15.8364      0.00000
     36      16.9467      0.00000
     37      16.9488      0.00000
     38      16.9525      0.00000
     39      16.9693      0.00000
     40      16.9788      0.00000
     41      16.9823      0.00000
     42      16.9882      0.00000
     43      16.9892      0.00000
     44      16.9982      0.00000
     45      18.7091      0.00000
     46      18.7175      0.00000
     47      18.7273      0.00000
     48      18.7293      0.00000


--------------------------------------------------------------------------------------------------------


 soft charge-density along one line, spin component           1
         0         1         2         3         4         5         6         7         8         9
 total charge-density along one line
 
 pseudopotential strength for first ion, spin component:           1
 18.598  -0.001   0.000   0.000   0.000   0.000   0.000   0.000
 -0.001   0.006   0.000   0.000   0.000   0.000   0.000   0.000
  0.000   0.000   4.224   0.000   0.000  -0.005   0.000   0.000
  0.000   0.000   0.000   4.224   0.000   0.000  -0.005   0.000
  0.000   0.000   0.000   0.000   4.224   0.000   0.000  -0.005
  0.000   0.000  -0.005   0.000   0.000   0.005   0.000   0.000
  0.000   0.000   0.000  -0.005   0.000   0.000   0.005   0.000
  0.000   0.000   0.000   0.000  -0.005   0.000   0.000   0.005
 total augmentation occupancy for first ion, spin component:           1
  1.320  -1.087   0.002  -0.002   0.002  -0.001   0.003  -0.003
 -1.087   1.013   0.001   0.001  -0.001   0.001  -0.003   0.002
  0.002   0.001   1.123   0.001  -0.002  -0.801  -0.001   0.002
 -0.002   0.001   0.001   1.124   0.001  -0.001  -0.802  -0.001
  0.002  -0.001  -0.002   0.001   1.122   0.002  -0.001  -0.800
 -0.001   0.001  -0.801  -0.001   0.002   0.647   0.001  -0.002
  0.003  -0.003  -0.001  -0.802  -0.001   0.001   0.648   0.001
 -0.003   0.002   0.002  -0.001  -0.800  -0.002   0.001   0.646


----------------------------------------- Iteration    1(  10)  ---------------------------------------


    POTLOK:  cpu time    0.02: real time    0.02
    SETDIJ:  cpu time    0.02: real time    0.02
    EDDIAG:  cpu time    0.02: real time    0.02
  RMM-DIIS:  cpu time    0.03: real time    0.03
    ORTHCH:  cpu time    0.01: real time    0.01
       DOS:  cpu time    0.00: real time    0.00
    CHARGE:  cpu time    0.02: real time    0.02
    MIXING:  cpu time    0.00: real time    0.00
    --------------------------------------------
      LOOP:  cpu time    0.12: real time    0.12

 eigenvalue-minimisations  :   104
 total energy-change (2. order) :-0.1853486E-03  (-0.2289164E-04)
 number of electron      31.9999999 magnetization 
 augmentation part       -1.7273529 magnetization 

 Broyden mixing:
  rms(total) = 0.40539E-03    rms(broyden)= 0.40492E-03
  rms(prec ) = 0.83423E-03
  weight for this iteration     100.00

 eigenvalues of (default mixing * dielectric matrix)
  average eigenvalue GAMMA=   2.0365
  3.0889  2.6228  2.1641  0.9785  1.3284

 Free energy of the ion-electron system (eV)
  ---------------------------------------------------
  alpha Z        PSCENC =        12.68944982
  Ewald energy   TEWEN  =      -907.56678499
  -1/2 Hartree   DENC   =       -70.84536069
  -exchange  EXHF       =         0.00000000
  -V(xc)+E(xc)   XCENC  =       -72.90950105
  PAW double counting   =       307.79825680     -166.64183850
  entropy T*S    EENTRO =         0.00000000
  eigenvalues    EBANDS =        37.87679400
  atomic energy  EATOM  =       826.37398168
  ---------------------------------------------------
  free energy    TOTEN  =       -33.22500294 eV

  energy without entropy =      -33.22500294  energy(sigma->0) =      -33.22500294


--------------------------------------------------------------------------------------------------------




 average (electrostatic) potential at core
  the test charge radii are     0.9892
  (the norm of the test charge is              1.0000)
       1 -83.2263       2 -83.2275       3 -83.2245       4 -83.2231       5 -83.2258
       6 -83.2279       7 -83.2273       8 -83.2253
 
 
 
 E-fermi :   6.0537     XC(G=0):  -9.1309     alpha+bet :-11.7379


 k-point   1 :       0.0000    0.0000    0.0000
  band No.  band energies     occupation 
      1      -5.9496      2.00000
      2      -1.8774      2.00000
      3      -1.8719      2.00000
      4      -1.8651      2.00000
      5      -1.8623      2.00000
      6      -1.8575      2.00000
      7      -1.8526      2.00000
      8       3.0448      2.00000
      9       3.0491      2.00000
     10       3.0504      2.00000
     11       3.0529      2.00000
     12       3.0531      2.00000
     13       3.0568      2.00000
     14       5.9183      2.00000
     15       5.9236      2.00000
     16       5.9260      2.00000
     17       6.5861      0.00000
     18       6.5911      0.00000
     19       6.5955      0.00000
     20       6.5984      0.00000
     21       6.5995      0.00000
     22       6.6055      0.00000
     23       8.3779      0.00000
     24       8.3793      0.00000
     25       8.3825      0.00000
     26       9.0561      0.00000
     27      13.6116      0.00000
     28      13.6117      0.00000
     29      13.8259      0.00000
     30      15.8198      0.00000
     31      15.8239      0.00000
     32      15.8266      0.00000
     33      15.8290      0.00000
     34      15.8332      0.00000
     35      15.8381      0.00000
     36      16.9505      0.00000
     37      16.9526      0.00000
     38      16.9564      0.00000
     39      16.9721      0.00000
     40      16.9814      0.00000
     41      16.9849      0.00000
     42      16.9907      0.00000
     43      16.9917      0.00000
     44      17.0006      0.00000
     45      18.7164      0.00000
     46      18.7242      0.00000
     47      18.7338      0.00000
     48      18.7359      0.00000


--------------------------------------------------------------------------------------------------------


 soft charge-density along one line, spin component           1
         0         1         2         3         4         5         6         7         8         9
 total charge-density along one line
 
 pseudopotential strength for first ion, spin component:           1
 18.597  -0.001   0.000   0.000   0.000   0.000   0.000   0.000
 -0.001   0.006   0.000   0.000   0.000   0.000   0.000   0.000
  0.000   0.000   4.224   0.000   0.000  -0.005   0.000   0.000
  0.000   0.000   0.000   4.224   0.000   0.000  -0.005   0.000
  0.000   0.000   0.000   0.000   4.224   0.000   0.000  -0.005
  0.000   0.000  -0.005   0.000   0.000   0.005   0.000   0.000
  0.000   0.000   0.000  -0.005   0.000   0.000   0.005   0.000
  0.000   0.000   0.000   0.000  -0.005   0.000   0.000   0.005
 total augmentation occupancy for first ion, spin component:           1
  1.320  -1.087   0.002  -0.002   0.002  -0.002   0.003  -0.002
 -1.087   1.013   0.001   0.001  -0.001   0.001  -0.003   0.002
  0.002   0.001   1.123   0.002  -0.002  -0.801  -0.001   0.002
 -0.002   0.001   0.002   1.124   0.001  -0.001  -0.802  -0.001
  0.002  -0.001  -0.002   0.001   1.121   0.002  -0.001  -0.800
 -0.002   0.001  -0.801  -0.001   0.002   0.648   0.001  -0.002
  0.003  -0.003  -0.001  -0.802  -0.001   0.001   0.649   0.001
 -0.002   0.002   0.002  -0.001  -0.800  -0.002   0.001   0.647


----------------------------------------- Iteration    1(  11)  ---------------------------------------


    POTLOK:  cpu time    0.02: real time    0.02
    SETDIJ:  cpu time    0.02: real time    0.02
    EDDIAG:  cpu time    0.02: real time    0.02
  RMM-DIIS:  cpu time    0.03: real time    0.03
    ORTHCH:  cpu time    0.01: real time    0.01
       DOS:  cpu time    0.00: real time    0.00
    CHARGE:  cpu time    0.02: real time    0.02
    MIXING:  cpu time    0.00: real time    0.00
    --------------------------------------------
      LOOP:  cpu time    0.12: real time    0.12

 eigenvalue-minimisations  :   117
 total energy-change (2. order) : 0.4264829E-05  (-0.2593726E-06)
 number of electron      31.9999999 magnetization 
 augmentation part       -1.7274423 magnetization 

 Broyden mixing:
  rms(total) = 0.15886E-03    rms(broyden)= 0.15880E-03
  rms(prec ) = 0.31156E-03
  weight for this iteration     100.00

 eigenvalues of (default mixing * dielectric matrix)
  average eigenvalue GAMMA=   1.9629
  3.2080  2.7012  2.1721  1.7293  0.9835  0.9835

 Free energy of the ion-electron system (eV)
  ---------------------------------------------------
  alpha Z        PSCENC =        12.68944982
  Ewald energy   TEWEN  =      -907.56678499
  -1/2 Hartree   DENC   =       -70.82781023
  -exchange  EXHF       =         0.00000000
  -V(xc)+E(xc)   XCENC  =       -72.91093431
  PAW double counting   =       307.73329860     -166.57443568
  entropy T*S    EENTRO =         0.00000000
  eigenvalues    EBANDS =        37.85823645
  atomic energy  EATOM  =       826.37398168
  ---------------------------------------------------
  free energy    TOTEN  =       -33.22499867 eV

  energy without entropy =      -33.22499867  energy(sigma->0) =      -33.22499867


--------------------------------------------------------------------------------------------------------




 average (electrostatic) potential at core
  the test charge radii are     0.9892
  (the norm of the test charge is              1.0000)
       1 -83.2282       2 -83.2296       3 -83.2260       4 -83.2244       5 -83.2276
       6 -83.2302       7 -83.2294       8 -83.2269
 
 
 
 E-fermi :   6.0535     XC(G=0):  -9.1314     alpha+bet :-11.7379


 k-point   1 :       0.0000    0.0000    0.0000
  band No.  band energies     occupation 
      1      -5.9502      2.00000
      2      -1.8783      2.00000
      3      -1.8727      2.00000
      4      -1.8657      2.00000
      5      -1.8629      2.00000
      6      -1.8580      2.00000
      7      -1.8530      2.00000
      8       3.0442      2.00000
      9       3.0486      2.00000
     10       3.0498      2.00000
     11       3.0524      2.00000
     12       3.0526      2.00000
     13       3.0564      2.00000
     14       5.9176      2.00000
     15       5.9229      2.00000
     16       5.9253      2.00000
     17       6.5856      0.00000
     18       6.5906      0.00000
     19       6.5950      0.00000
     20       6.5979      0.00000
     21       6.5989      0.00000
     22       6.6050      0.00000
     23       8.3775      0.00000
     24       8.3789      0.00000
     25       8.3821      0.00000
     26       9.0553      0.00000
     27      13.6114      0.00000
     28      13.6114      0.00000
     29      13.8248      0.00000
     30      15.8192      0.00000
     31      15.8233      0.00000
     32      15.8261      0.00000
     33      15.8283      0.00000
     34      15.8326      0.00000
     35      15.8375      0.00000
     36      16.9501      0.00000
     37      16.9523      0.00000
     38      16.9560      0.00000
     39      16.9715      0.00000
     40      16.9809      0.00000
     41      16.9843      0.00000
     42      16.9902      0.00000
     43      16.9912      0.00000
     44      17.0001      0.00000
     45      18.7179      0.00000
     46      18.7244      0.00000
     47      18.7338      0.00000
     48      18.7360      0.00000


--------------------------------------------------------------------------------------------------------


 soft charge-density along one line, spin component           1
         0         1         2         3         4         5         6         7         8         9
 total charge-density along one line
 
 pseudopotential strength for first ion, spin component:           1
 18.597  -0.001   0.000   0.000   0.000   0.000   0.000   0.000
 -0.001   0.006   0.000   0.000   0.000   0.000   0.000   0.000
  0.000   0.000   4.224   0.000   0.000  -0.005   0.000   0.000
  0.000   0.000   0.000   4.224   0.000   0.000  -0.005   0.000
  0.000   0.000   0.000   0.000   4.224   0.000   0.000  -0.005
  0.000   0.000  -0.005   0.000   0.000   0.005   0.000   0.000
  0.000   0.000   0.000  -0.005   0.000   0.000   0.005   0.000
  0.000   0.000   0.000   0.000  -0.005   0.000   0.000   0.005
 total augmentation occupancy for first ion, spin component:           1
  1.320  -1.087   0.002  -0.002   0.002  -0.001   0.003  -0.003
 -1.087   1.012   0.001   0.001  -0.001   0.001  -0.003   0.002
  0.002   0.001   1.123   0.002  -0.002  -0.801  -0.001   0.002
 -0.002   0.001   0.002   1.124   0.001  -0.001  -0.802  -0.001
  0.002  -0.001  -0.002   0.001   1.121   0.002  -0.001  -0.800
 -0.001   0.001  -0.801  -0.001   0.002   0.648   0.001  -0.002
  0.003  -0.003  -0.001  -0.802  -0.001   0.001   0.649   0.001
 -0.003   0.002   0.002  -0.001  -0.800  -0.002   0.001   0.647


----------------------------------------- Iteration    1(  12)  ---------------------------------------


    POTLOK:  cpu time    0.02: real time    0.02
    SETDIJ:  cpu time    0.02: real time    0.02
    EDDIAG:  cpu time    0.03: real time    0.03
  RMM-DIIS:  cpu time    0.02: real time    0.02
    ORTHCH:  cpu time    0.01: real time    0.01
       DOS:  cpu time    0.00: real time    0.00
    CHARGE:  cpu time    0.02: real time    0.02
    MIXING:  cpu time    0.00: real time    0.00
    --------------------------------------------
      LOOP:  cpu time    0.12: real time    0.13

 eigenvalue-minimisations  :   125
 total energy-change (2. order) :-0.6791126E-06  (-0.5780942E-07)
 number of electron      31.9999999 magnetization 
 augmentation part       -1.7274290 magnetization 

 Broyden mixing:
  rms(total) = 0.59537E-04    rms(broyden)= 0.59501E-04
  rms(prec ) = 0.84201E-04
  weight for this iteration     100.00

 eigenvalues of (default mixing * dielectric matrix)
  average eigenvalue GAMMA=   2.0018
  3.2175  2.7395  2.4747  2.0939  1.5258  0.9980  0.9629

 Free energy of the ion-electron system (eV)
  ---------------------------------------------------
  alpha Z        PSCENC =        12.68944982
  Ewald energy   TEWEN  =      -907.56678499
  -1/2 Hartree   DENC   =       -70.83220781
  -exchange  EXHF       =         0.00000000
  -V(xc)+E(xc)   XCENC  =       -72.91086079
  PAW double counting   =       307.74123453     -166.58258689
  entropy T*S    EENTRO =         0.00000000
  eigenvalues    EBANDS =        37.86277511
  atomic energy  EATOM  =       826.37398168
  ---------------------------------------------------
  free energy    TOTEN  =       -33.22499935 eV

  energy without entropy =      -33.22499935  energy(sigma->0) =      -33.22499935


--------------------------------------------------------------------------------------------------------




 average (electrostatic) potential at core
  the test charge radii are     0.9892
  (the norm of the test charge is              1.0000)
       1 -83.2277       2 -83.2291       3 -83.2254       4 -83.2238       5 -83.2271
       6 -83.2298       7 -83.2290       8 -83.2264
 
 
 
 E-fermi :   6.0541     XC(G=0):  -9.1311     alpha+bet :-11.7379


 k-point   1 :       0.0000    0.0000    0.0000
  band No.  band energies     occupation 
      1      -5.9500      2.00000
      2      -1.8782      2.00000
      3      -1.8725      2.00000
      4      -1.8656      2.00000
      5      -1.8627      2.00000
      6      -1.8578      2.00000
      7      -1.8528      2.00000
      8       3.0443      2.00000
      9       3.0487      2.00000
     10       3.0500      2.00000
     11       3.0526      2.00000
     12       3.0527      2.00000
[...]
    MIXING:  cpu time    0.00: real time    0.00
    --------------------------------------------
      LOOP:  cpu time    0.15: real time    0.15

 Broyden mixing:
  rms(total) = 0.71914E-02    rms(broyden)= 0.71910E-02
  rms(prec ) = 0.12355E-01
  weight for this iteration     100.00

 eigenvalues of (default mixing * dielectric matrix)
  average eigenvalue GAMMA=   2.0716
  3.0295  2.4812  1.1217  1.6543

 Free energy of the ion-electron system (eV)
  ---------------------------------------------------
  -1/2 Hartree   DENC   =        -4.61467330
  -V(xc)+E(xc)   XCENC  =         0.94946056
  PAW double counting   =         3.10254895       -3.15194764
  entropy T*S    EENTRO =         0.00000000
  eigenvalues    EBANDS =       -24.52568411
  ---------------------------------------------------
  free energy    TOTEN  =       -28.24029554 eV

  energy without entropy =      -28.24029554


----------------------------------------- Iteration    3(   7)  ---------------------------------------


   POT+DIJ:  cpu time    0.07: real time    0.07
    HAMIL1:  cpu time    0.00: real time    0.01
    LRDIAG:  cpu time    0.01: real time    0.01
    LRDIIS:  cpu time    0.02: real time    0.02
    LRDIAG:  cpu time    0.01: real time    0.01
    MIXING:  cpu time    0.00: real time    0.00
    --------------------------------------------
      LOOP:  cpu time    0.14: real time    0.15

 Broyden mixing:
  rms(total) = 0.53380E-03    rms(broyden)= 0.53293E-03
  rms(prec ) = 0.10177E-02
  weight for this iteration     100.00

 eigenvalues of (default mixing * dielectric matrix)
  average eigenvalue GAMMA=   1.9587
  3.0911  2.4155  1.1137  1.6738  1.4992

 Free energy of the ion-electron system (eV)
  ---------------------------------------------------
  -1/2 Hartree   DENC   =        -4.62742556
  -V(xc)+E(xc)   XCENC  =         0.95744139
  PAW double counting   =         3.06536790       -3.11420948
  entropy T*S    EENTRO =         0.00000000
  eigenvalues    EBANDS =       -24.56246640
  ---------------------------------------------------
  free energy    TOTEN  =       -28.28129214 eV

  energy without entropy =      -28.28129214


----------------------------------------- Iteration    3(   8)  ---------------------------------------


   POT+DIJ:  cpu time    0.07: real time    0.07
    HAMIL1:  cpu time    0.01: real time    0.01
    LRDIAG:  cpu time    0.01: real time    0.01
    LRDIIS:  cpu time    0.02: real time    0.02
    LRDIAG:  cpu time    0.01: real time    0.01
    MIXING:  cpu time    0.00: real time    0.00
    --------------------------------------------
      LOOP:  cpu time    0.15: real time    0.15

 Broyden mixing:
  rms(total) = 0.27616E-03    rms(broyden)= 0.27609E-03
  rms(prec ) = 0.40846E-03
  weight for this iteration     100.00

 eigenvalues of (default mixing * dielectric matrix)
  average eigenvalue GAMMA=   1.9070
  3.0879  2.4650  2.0499  1.6612  1.1299  1.0482

 Free energy of the ion-electron system (eV)
  ---------------------------------------------------
  -1/2 Hartree   DENC   =        -4.63071582
  -V(xc)+E(xc)   XCENC  =         0.95832011
  PAW double counting   =         3.06891481       -3.11781602
  entropy T*S    EENTRO =         0.00000000
  eigenvalues    EBANDS =       -24.56355969
  ---------------------------------------------------
  free energy    TOTEN  =       -28.28485661 eV

  energy without entropy =      -28.28485661


----------------------------------------- Iteration    3(   9)  ---------------------------------------


   POT+DIJ:  cpu time    0.07: real time    0.07
    HAMIL1:  cpu time    0.00: real time    0.01
    LRDIAG:  cpu time    0.01: real time    0.01
    LRDIIS:  cpu time    0.03: real time    0.03
    LRDIAG:  cpu time    0.01: real time    0.01
    MIXING:  cpu time    0.00: real time    0.00
    --------------------------------------------
      LOOP:  cpu time    0.16: real time    0.16

 Broyden mixing:
  rms(total) = 0.10447E-03    rms(broyden)= 0.10445E-03
  rms(prec ) = 0.15832E-03
  weight for this iteration     100.00

 eigenvalues of (default mixing * dielectric matrix)
  average eigenvalue GAMMA=   1.8928
  3.1740  2.7274  2.4036  1.6748  1.2728  1.1005  0.8967

 Free energy of the ion-electron system (eV)
  ---------------------------------------------------
  -1/2 Hartree   DENC   =        -4.63040622
  -V(xc)+E(xc)   XCENC  =         0.95825816
  PAW double counting   =         3.07101085       -3.11994830
  entropy T*S    EENTRO =         0.00000000
  eigenvalues    EBANDS =       -24.56381447
  ---------------------------------------------------
  free energy    TOTEN  =       -28.28489997 eV

  energy without entropy =      -28.28489997


----------------------------------------- Iteration    3(  10)  ---------------------------------------


   POT+DIJ:  cpu time    0.07: real time    0.08
    HAMIL1:  cpu time    0.00: real time    0.01
    LRDIAG:  cpu time    0.01: real time    0.01
    LRDIIS:  cpu time    0.02: real time    0.02
    LRDIAG:  cpu time    0.01: real time    0.01
    MIXING:  cpu time    0.00: real time    0.00
    --------------------------------------------
      LOOP:  cpu time    0.15: real time    0.15

 Broyden mixing:
  rms(total) = 0.15651E-04    rms(broyden)= 0.15641E-04
  rms(prec ) = 0.24939E-04
  weight for this iteration     100.00

 eigenvalues of (default mixing * dielectric matrix)
  average eigenvalue GAMMA=   1.8307
  3.1939  2.7691  2.4446  1.6709  1.4099  0.9990  1.0401  1.1183

 Free energy of the ion-electron system (eV)
  ---------------------------------------------------
  -1/2 Hartree   DENC   =        -4.63049251
  -V(xc)+E(xc)   XCENC  =         0.95830188
  PAW double counting   =         3.07214880       -3.12110608
  entropy T*S    EENTRO =         0.00000000
  eigenvalues    EBANDS =       -24.56407477
  ---------------------------------------------------
  free energy    TOTEN  =       -28.28522269 eV

  energy without entropy =      -28.28522269


----------------------------------------- Iteration    3(  11)  ---------------------------------------


   POT+DIJ:  cpu time    0.07: real time    0.07
    HAMIL1:  cpu time    0.00: real time    0.00
    LRDIAG:  cpu time    0.01: real time    0.01
    LRDIIS:  cpu time    0.02: real time    0.02
    LRDIAG:  cpu time    0.01: real time    0.01
    MIXING:  cpu time    0.00: real time    0.00
    --------------------------------------------
      LOOP:  cpu time    0.15: real time    0.15

 Broyden mixing:
  rms(total) = 0.38161E-05    rms(broyden)= 0.38138E-05
  rms(prec ) = 0.52888E-05
  weight for this iteration     100.00

 eigenvalues of (default mixing * dielectric matrix)
  average eigenvalue GAMMA=   1.8914
  3.2029  2.8023  2.4428  2.3795  1.6721  1.4103  1.0010  1.0010  1.1111

 Free energy of the ion-electron system (eV)
  ---------------------------------------------------
  -1/2 Hartree   DENC   =        -4.63049657
  -V(xc)+E(xc)   XCENC  =         0.95829771
  PAW double counting   =         3.07225182       -3.12121079
  entropy T*S    EENTRO =         0.00000000
  eigenvalues    EBANDS =       -24.56405590
  ---------------------------------------------------
  free energy    TOTEN  =       -28.28521372 eV

  energy without entropy =      -28.28521372


----------------------------------------- Iteration    3(  12)  ---------------------------------------


   POT+DIJ:  cpu time    0.07: real time    0.07
    HAMIL1:  cpu time    0.01: real time    0.01
    LRDIAG:  cpu time    0.01: real time    0.01
    LRDIIS:  cpu time    0.02: real time    0.02
    LRDIAG:  cpu time    0.01: real time    0.01
    MIXING:  cpu time    0.00: real time    0.00
    --------------------------------------------
      LOOP:  cpu time    0.15: real time    0.15

 Broyden mixing:
  rms(total) = 0.10476E-05    rms(broyden)= 0.10472E-05
  rms(prec ) = 0.15711E-05
  weight for this iteration     100.00

 eigenvalues of (default mixing * dielectric matrix)
  average eigenvalue GAMMA=   1.8354
  3.2047  2.8071  2.5340  2.4448  1.6707  1.2861  1.2861  1.1117  1.0043  1.0043

 Free energy of the ion-electron system (eV)
  ---------------------------------------------------
  -1/2 Hartree   DENC   =        -4.63049692
  -V(xc)+E(xc)   XCENC  =         0.95829749
  PAW double counting   =         3.07217101       -3.12112863
  entropy T*S    EENTRO =         0.00000000
  eigenvalues    EBANDS =       -24.56405703
  ---------------------------------------------------
  free energy    TOTEN  =       -28.28521408 eV

  energy without entropy =      -28.28521408


----------------------------------------- Iteration    3(  13)  ---------------------------------------


   POT+DIJ:  cpu time    0.07: real time    0.07
    HAMIL1:  cpu time    0.01: real time    0.00
    LRDIAG:  cpu time    0.01: real time    0.01
    LRDIIS:  cpu time    0.02: real time    0.02
    LRDIAG:  cpu time    0.01: real time    0.01
    MIXING:  cpu time    0.00: real time    0.00
    --------------------------------------------
      LOOP:  cpu time    0.15: real time    0.15

 Broyden mixing:
  rms(total) = 0.21398E-06    rms(broyden)= 0.21386E-06
  rms(prec ) = 0.40756E-06
  weight for this iteration     100.00

 eigenvalues of (default mixing * dielectric matrix)
  average eigenvalue GAMMA=   1.8161
  3.2064  2.8286  2.4449  2.5946  1.6631  1.6990  1.3368  0.9991  0.9991  1.1259
  1.0797

 Free energy of the ion-electron system (eV)
  ---------------------------------------------------
  -1/2 Hartree   DENC   =        -4.63049863
  -V(xc)+E(xc)   XCENC  =         0.95829776
  PAW double counting   =         3.07214855       -3.12110577
  entropy T*S    EENTRO =         0.00000000
  eigenvalues    EBANDS =       -24.56405690
  ---------------------------------------------------
  free energy    TOTEN  =       -28.28521500 eV

  energy without entropy =      -28.28521500


------------------------ aborting loop because EDIFF is reached ----------------------------------------


 change of polarisation eV/A/(eV/A) component  3 :    -0.044     0.075    50.530
 dielectric tensor                  component  3 :    -0.049     0.083    56.867


--------------------------------------------------------------------------------------------------------


    FORLOC:  cpu time    0.00: real time    0.00
    FORNL :  cpu time    0.08: real time    0.08
    STRESS:  cpu time    0.28: real time    0.28
    FORCOR:  cpu time    0.02: real time    0.02
    FORLOC:  cpu time    0.00: real time    0.00
    FORNL :  cpu time    0.08: real time    0.08
    STRESS:  cpu time    0.27: real time    0.27
    FORCOR:  cpu time    0.02: real time    0.02
    FORNLD:  cpu time    0.01: real time    0.01

 PIEZOELECTRIC TENSOR FIELD DIRECTION 3  (e Angst)
 -----------------------------------------------------------------------------
    -0.00733  0.00375  0.00712           (  0.00001 -0.00004  0.00000)
     0.00375  0.01974 -0.00710           ( -0.00004 -0.00002 -0.00001)
     0.00712 -0.00710  0.00027           (  0.00000 -0.00001  0.00000)

 PIEZOELECTRIC TENSOR FIELD DIRECTION 3  (C/m^2)
 -----------------------------------------------------------------------------
    -0.00072  0.00037  0.00070
     0.00037  0.00193 -0.00070
     0.00070 -0.00070  0.00003


      POSITION         DIRECTION 3           BORN EFFECTIVE CHARGE    (rigid.aug.   ionic)
 -----------------------------------------------------------------------------------------
      5.46866      5.46997      5.46826     0.03376 -0.13793 -5.77842 (  0.21593  4.00000)
      1.36747      1.36576      1.36519     0.03387  0.13268 -5.75761 (  0.21594  4.00000)
      2.73326      2.73269      5.46840    -0.05416  0.15653 -5.81538 (  0.21591  4.00000)
      4.10019      4.10090      1.37066     0.03333 -0.11901 -5.84713 (  0.21590  4.00000)
      2.73340      0.00316      2.73486    -0.03725 -0.16000 -5.76684 (  0.21593  4.00000)
      4.10566      1.36736      4.09914    -0.02478  0.11369 -5.72703 (  0.21595  4.00000)
      5.46986      2.73164      2.73511     0.04959  0.13429 -5.73722 (  0.21594  4.00000)
      1.36414      4.10261      4.10371    -0.02805 -0.13917 -5.78150 (  0.21592  4.00000)
 -----------------------------------------------------------------------------------------
    total drift (improves with k-points):   0.00630 -0.01892-46.21114




--------------------------------------------------------------------------------------------------------


  LATTYP: Found a simple cubic cell.
 ALAT       =     5.4700000000
  
  Lattice vectors:
  
 A1 = (   5.4700000000,   0.0000000000,   0.0000000000)
 A2 = (   0.0000000000,   5.4700000000,   0.0000000000)
 A3 = (   0.0000000000,   0.0000000000,   5.4700000000)


Analysis of symmetry for initial positions (statically):
=====================================================================
 Subroutine PRICEL returns:
 Original cell was already a primitive cell.
 

 Routine SETGRP: Setting up the symmetry group for a 
 simple cubic supercell.


 Subroutine GETGRP returns: Found  1 space group operations
 (whereof  1 operations were pure point group operations)
 out of a pool of 48 trial point group operations.


The static configuration has the point symmetry C_1 .


Analysis of symmetry for dynamics (positions and initial velocities):
=====================================================================
 Subroutine PRICEL returns:
 Original cell was already a primitive cell.
 

 Routine SETGRP: Setting up the symmetry group for a 
 simple cubic supercell.


 Subroutine GETGRP returns: Found  1 space group operations
 (whereof  1 operations were pure point group operations)
 out of a pool of 48 trial point group operations.


The dynamic configuration has the point symmetry C_1 .


 MACROSCOPIC STATIC DIELECTRIC TENSOR (including local field effects in DFT)
 ------------------------------------------------------
          56.865354     0.059224    -0.048576
           0.059224    56.868750     0.083189
          -0.048576     0.083188    56.866937
 ------------------------------------------------------



--------------------------------------------------------------------------------------------------------


  LATTYP: Found a simple cubic cell.
 ALAT       =     5.4700000000
  
  Lattice vectors:
  
 A1 = (   5.4700000000,   0.0000000000,   0.0000000000)
 A2 = (   0.0000000000,   5.4700000000,   0.0000000000)
 A3 = (   0.0000000000,   0.0000000000,   5.4700000000)


Analysis of symmetry for initial positions (statically):
=====================================================================
 Subroutine PRICEL returns:
 Original cell was already a primitive cell.
 

 Routine SETGRP: Setting up the symmetry group for a 
 simple cubic supercell.


 Subroutine GETGRP returns: Found  1 space group operations
 (whereof  1 operations were pure point group operations)
 out of a pool of 48 trial point group operations.


The static configuration has the point symmetry C_1 .


Analysis of symmetry for dynamics (positions and initial velocities):
=====================================================================
 Subroutine PRICEL returns:
 Original cell was already a primitive cell.
 

 Routine SETGRP: Setting up the symmetry group for a 
 simple cubic supercell.


 Subroutine GETGRP returns: Found  1 space group operations
 (whereof  1 operations were pure point group operations)
 out of a pool of 48 trial point group operations.


The dynamic configuration has the point symmetry C_1 .
 
 KPOINTS: Automatic mesh                          

Automatic generation of k-mesh.
Space group operators:
 irot       det(A)        alpha          n_x          n_y          n_z        tau_x        tau_y        tau_z
    1     1.000000     0.000001     1.000000     0.000000     0.000000     0.000000     0.000000     0.000000
 
 Subroutine IBZKPT returns following result:
 ===========================================
 
 Found      1 irreducible k-points:
 
 Following reciprocal coordinates:
            Coordinates               Weight
  0.000000  0.000000  0.000000      1.000000
 
 Following cartesian coordinates:
            Coordinates               Weight
  0.000000  0.000000  0.000000      1.000000
 


--------------------------------------------------------------------------------------------------------




 MACROSCOPIC STATIC DIELECTRIC TENSOR (including local field effects in DFT)
 ------------------------------------------------------
          56.865354     0.059224    -0.048576
           0.059224    56.868750     0.083189
          -0.048576     0.083188    56.866937
 ------------------------------------------------------


 PIEZOELECTRIC TENSOR  for field in x, y, z        (e  Angst)
          XX          YY          ZZ          XY          YZ          ZX
  --------------------------------------------------------------------------------
  x     0.00028    -0.01792     0.00632    -0.00466     0.00487    -0.00680
  y    -0.00016    -0.01694    -0.00906    -0.00217     0.00259    -0.00908
  z    -0.00733     0.01974     0.00027     0.00375    -0.00710     0.00712

 PIEZOELECTRIC TENSOR  for field in x, y, z        (C/m^2)
          XX          YY          ZZ          XY          YZ          ZX
  --------------------------------------------------------------------------------
  x     0.00003    -0.00175     0.00062    -0.00046     0.00048    -0.00067
  y    -0.00002    -0.00166    -0.00089    -0.00021     0.00025    -0.00089
  z    -0.00072     0.00193     0.00003     0.00037    -0.00070     0.00070
 
 BORN EFFECTIVE CHARGES (in e, cummulative output)
 -------------------------------------------------
 ion    1
    1    -5.75219     0.14572    -0.05399
    2    -0.08163    -5.76578     0.03539
    3     0.03376    -0.13793    -5.77842
 ion    2
    1    -5.74015    -0.14526    -0.02321
    2     0.17579    -5.71782    -0.11434
    3     0.03387     0.13268    -5.75761
 ion    3
    1    -5.82120    -0.14809     0.03963
    2     0.08418    -5.80431    -0.11261
    3    -0.05416     0.15653    -5.81538
 ion    4
    1    -5.84023     0.14491    -0.01816
    2    -0.18073    -5.86587     0.12388
    3     0.03333    -0.11901    -5.84713
 ion    5
    1    -5.79436     0.14570     0.05119
    2    -0.08528    -5.77890     0.10467
    3    -0.03725    -0.16000    -5.76684
 ion    6
    1    -5.74451    -0.09680     0.02962
    2     0.05881    -5.70805    -0.12465
    3    -0.02478     0.11369    -5.72703
 ion    7
    1    -5.73178    -0.15234    -0.04263
    2     0.08392    -5.74832    -0.04358
    3     0.04959     0.13429    -5.73722
 ion    8
    1    -5.78695     0.09325     0.02362
    2    -0.06762    -5.82411     0.11240
    3    -0.02805    -0.13917    -5.78150


--------------------------------------------------------------------------------------------------------


     LOOP+:  cpu time   20.45: real time   20.93
    4ORBIT:  cpu time    0.00: real time    0.00

 total amount of memory used by VASP on root node    32224. kBytes
========================================================================

   base      :      30000. kBytes
   nonl-proj :        202. kBytes
   fftplans  :        782. kBytes
   grid      :       1198. kBytes
   one-center:         24. kBytes
   wavefun   :         18. kBytes
 
  
  
 General timing and accounting informations for this job:
 ========================================================
  
                  Total CPU time used (sec):       21.845
                            User time (sec):       17.094
                          System time (sec):        4.750
                         Elapsed time (sec):       23.765
  
                   Maximum memory used (kb):       67980.
                   Average memory used (kb):           0.
  
                          Minor page faults:       209121
                          Major page faults:            0
                 Voluntary context switches:         1493
