 vasp.5.3.3 18Dez12 (build Jan  9 2014 12:00:49) complex                        
  
 executed on             LinuxIFC date 2014.01.29  10:09:32
 running on   48 total cores
 distrk:  each k-point on   48 cores,    1 groups
 distr:  one band on NCORES_PER_BAND=   1 cores,   48 groups


--------------------------------------------------------------------------------------------------------


 INCAR:
 POTCAR:    PAW Si                                

 ----------------------------------------------------------------------------- 
|                                                                             |
|           W    W    AA    RRRRR   N    N  II  N    N   GGGG   !!!           |
|           W    W   A  A   R    R  NN   N  II  NN   N  G    G  !!!           |
|           W    W  A    A  R    R  N N  N  II  N N  N  G       !!!           |
|           W WW W  AAAAAA  RRRRR   N  N N  II  N  N N  G  GGG   !            |
|           WW  WW  A    A  R   R   N   NN  II  N   NN  G    G                |
|           W    W  A    A  R    R  N    N  II  N    N   GGGG   !!!           |
|                                                                             |
|      For optimal performance we recommend that you set                      |
|        NPAR = 4 - approx SQRT( number of cores)                             |
|      (number of cores/NPAR must be integer)                                 |
|      This setting will greatly improve the performance of VASP for DFT.     |
|      The default NPAR=number of cores might be grossly inefficient          |
|      on modern multi-core architectures or massively parallel machines.     |
|      Do your own testing.                                                   |
|      Unfortunately you need to use the default for hybrid, GW and RPA       |
|      calculations.                                                          |
|                                                                             |
 ----------------------------------------------------------------------------- 

 POTCAR:    PAW Si                                
   VRHFIN =Si: s2p2                                                             
   LEXCH  = 91                                                                  
   EATOM  =   103.3076 eV,    7.5929 Ry                                         
                                                                                
   TITEL  = PAW Si                                                              
   LULTRA =        F    use ultrasoft PP ?                                      
   IUNSCR =        1    unscreen: 0-lin 1-nonlin 2-no                           
   RPACOR =    1.500    partial core radius                                     
   POMASS =   28.085; ZVAL   =    4.000    mass and valenz                      
   RCORE  =    1.900    outmost cutoff radius                                   
   RWIGS  =    2.480; RWIGS  =    1.312    wigner-seitz radius (au A)           
   ENMAX  =  245.435; ENMIN  =  184.076 eV                                      
   ICORE  =        2    local potential                                         
   LCOR   =        T    correct aug charges                                     
   LPAW   =        T    paw PP                                                  
   EAUG   =  322.069                                                            
   DEXC   =    -.001                                                            
   RMAX   =    2.943    core radius for proj-oper                               
   RAUG   =    1.300    factor for augmentation sphere                          
   RDEP   =    1.993    core radius for depl-charge                             
   QCUT   =   -4.247; QGAM   =    8.494    optimization parameters              
                                                                                
   Description                                                                  
     l     E      TYP  RCUT    TYP  RCUT                                        
     0   .000     23  1.900                                                     
     0   .000     23  1.900                                                     
     1   .000     23  1.900                                                     
     1   .000     23  1.900                                                     
     2   .000      7  1.900                                                     
  local pseudopotential read in
  partial core-charges read in
  atomic valenz-charges read in
  non local Contribution for L=           0  read in
    real space projection operators read in
  non local Contribution for L=           0  read in
    real space projection operators read in
  non local Contribution for L=           1  read in
    real space projection operators read in
  non local Contribution for L=           1  read in
    real space projection operators read in
    PAW grid and wavefunctions read in
 
   number of l-projection  operators is LMAX  =           4
   number of lm-projection operators is LMMAX =           8
 
  PAW Si                                :
 energy of atom  1       EATOM= -103.3076
 kinetic energy error for atom=    0.0109 (will be added to EATOM!!)
 
 
 POSCAR: OUTCAR.0019.-1.out 1.0e-02              
  positions in cartesian coordinates
  No initial velocities read in
 exchange correlation table for  LEXCH =        7
   RHO(1)=    0.500       N(1)  =     2000
   RHO(2)=  100.500       N(2)  =     4000

 VTST: version 3.0c, (01/09/14)

 CHAIN: initializing optimizer
 
 OPT: Using VASP Dynamics algorithm
 CHAIN: Read ICHAIN            0
 
 POSCAR: OUTCAR.0019.-1.out 1.0e-02              
  positions in cartesian coordinates
  No initial velocities read in
 


--------------------------------------------------------------------------------------------------------


 ion  position               nearest neighbor table
   1  1.000  1.000  0.000-   2 2.37   6 2.37   4 2.37   8 2.37
   2  0.250  0.250  0.249-   3 2.36   1 2.37   7 2.37   5 2.37
   3  0.500  0.499  1.000-   2 2.36   6 2.36   4 2.37   8 2.37
   4  0.749  0.750  0.250-   5 2.37   3 2.37   7 2.37   1 2.37
   5  0.500  1.000  0.500-   4 2.37   8 2.37   6 2.37   2 2.37
   6  0.750  0.250  0.750-   3 2.36   1 2.37   5 2.37   7 2.37
   7  1.000  0.500  0.499-   8 2.37   4 2.37   2 2.37   6 2.37
   8  0.250  0.749  0.750-   7 2.37   5 2.37   3 2.37   1 2.37
 
  LATTYP: Found a simple cubic cell.
 ALAT       =     5.4700000000
  
  Lattice vectors:
  
 A1 = (   5.4700000000,   0.0000000000,   0.0000000000)
 A2 = (   0.0000000000,   5.4700000000,   0.0000000000)
 A3 = (   0.0000000000,   0.0000000000,   5.4700000000)


Analysis of symmetry for initial positions (statically):
=====================================================================
 Subroutine PRICEL returns:
 Original cell was already a primitive cell.
 

 Routine SETGRP: Setting up the symmetry group for a 
 simple cubic supercell.


 Subroutine GETGRP returns: Found  1 space group operations
 (whereof  1 operations were pure point group operations)
 out of a pool of 48 trial point group operations.


The static configuration has the point symmetry C_1 .


Analysis of symmetry for dynamics (positions and initial velocities):
=====================================================================
 Subroutine PRICEL returns:
 Original cell was already a primitive cell.
 

 Routine SETGRP: Setting up the symmetry group for a 
 simple cubic supercell.


 Subroutine GETGRP returns: Found  1 space group operations
 (whereof  1 operations were pure point group operations)
 out of a pool of 48 trial point group operations.


The dynamic configuration has the point symmetry C_1 .


 irot  :   1
 --------------------------------------------------------------------
 isymop:   1   0   0
           0   1   0
           0   0   1

 gtrans:     0.0000000     0.0000000     0.0000000

 ptrans:     0.0000000     0.0000000     0.0000000
 rotmap:
 (   1->   1)  (   2->   2)  (   3->   3)  (   4->   4)  (   5->   5) 
 (   6->   6)  (   7->   7)  (   8->   8) 
 
 
 KPOINTS: Automatic mesh                          

Automatic generation of k-mesh.
Space group operators:
 irot       det(A)        alpha          n_x          n_y          n_z        tau_x        tau_y        tau_z
    1     1.000000     0.000001     1.000000     0.000000     0.000000     0.000000     0.000000     0.000000
 
 Subroutine IBZKPT returns following result:
 ===========================================
 
 Found      1 irreducible k-points:
 
 Following reciprocal coordinates:
            Coordinates               Weight
  0.000000  0.000000  0.000000      1.000000
 
 Following cartesian coordinates:
            Coordinates               Weight
  0.000000  0.000000  0.000000      1.000000
 
 
 Subroutine IBZKPT_HF returns following result:
 ==============================================
 
 Found      1 k-points in 1st BZ
 the following      1 k-points will be used (e.g. in the exchange kernel)
 Following reciprocal coordinates:   # in IRBZ
  0.000000  0.000000  0.000000       1 t-inv F


--------------------------------------------------------------------------------------------------------




 Dimension of arrays:
   k-points           NKPTS =      1   k-points in BZ     NKDIM =      1   number of bands    NBANDS=     48
   number of dos      NEDOS =    301   number of ions     NIONS =      8
   non local maximal  LDIM  =      4   non local SUM 2l+1 LMDIM =      8
   total plane-waves  NPLWV =  21952
   max r-space proj   IRMAX =      1   max aug-charges    IRDMAX=  36071
   dimension x,y,z NGX =    28 NGY =   28 NGZ =   28
   dimension x,y,z NGXF=    56 NGYF=   56 NGZF=   56
   support grid    NGXF=   112 NGYF=  112 NGZF=  112
   ions per type =               8
 NGX,Y,Z   is equivalent  to a cutoff of   8.51,  8.51,  8.51 a.u.
 NGXF,Y,Z  is equivalent  to a cutoff of  17.02, 17.02, 17.02 a.u.


 I would recommend the setting:
   dimension x,y,z NGX =    19 NGY =   19 NGZ =   19
 SYSTEM =  NAPTHA04                                
 POSCAR =  OUTCAR.0019.-1.out 1.0e-02              

 Startparameter for this run:
   NWRITE =      3    write-flag & timer
   PREC   = normal    normal or accurate (medium, high low for compatibility)
   ISTART =      0    job   : 0-new  1-cont  2-samecut
   ICHARG =      2    charge: 1-file 2-atom 10-const
   ISPIN  =      1    spin polarized calculation?
   LNONCOLLINEAR =      F non collinear calculations
   LSORBIT =      F    spin-orbit coupling
   INIWAV =      1    electr: 0-lowe 1-rand  2-diag
   LASPH  =      F    aspherical Exc in radial PAW
   METAGGA=      F    non-selfconsistent MetaGGA calc.

 Electronic Relaxation 1
   ENCUT  =  200.0 eV  14.70 Ry    3.83 a.u.   6.31  6.31  6.31*2*pi/ulx,y,z
   ENINI  =  200.0     initial cutoff
   ENAUG  =  322.1 eV  augmentation charge cutoff
   NELM   =     60;   NELMIN=  2; NELMDL= -5     # of ELM steps 
   EDIFF  = 0.1E-07   stopping-criterion for ELM
   LREAL  =      F    real-space projection
   NLSPLINE    = F    spline interpolate recip. space projectors
   LCOMPAT=      F    compatible to vasp.4.4
   GGA_COMPAT  = T    GGA compatible to vasp.4.4-vasp.4.6
   LMAXPAW     = -100 max onsite density
   LMAXMIX     =    2 max onsite mixed and CHGCAR
   VOSKOWN=      0    Vosko Wilk Nusair interpolation
   ROPT   =    0.00000
 Ionic relaxation
   EDIFFG = 0.1E-06   stopping-criterion for IOM
   NSW    =      0    number of steps for IOM
   NBLOCK =      1;   KBLOCK =      1    inner block; outer block 
   IBRION =     -1    ionic relax: 0-MD 1-quasi-New 2-CG
   NFREE  =      0    steps in history (QN), initial steepest desc. (CG)
   ISIF   =      2    stress and relaxation
   IWAVPR =     10    prediction:  0-non 1-charg 2-wave 3-comb
   ISYM   =      2    0-nonsym 1-usesym 2-fastsym
   LCORR  =      T    Harris-Foulkes like correction to forces

   POTIM  = 0.5000    time-step for ionic-motion
   TEIN   =    0.0    initial temperature
   TEBEG  =    0.0;   TEEND  =   0.0 temperature during run
   SMASS  =  -3.00    Nose mass-parameter (am)
   estimated Nose-frequenzy (Omega)   =  0.10E-29 period in steps =****** mass=  -0.684E-27a.u.
   SCALEE = 1.0000    scale energy and forces
   NPACO  =    256;   APACO  = 16.0  distance and # of slots for P.C.
   PSTRESS=    0.0 pullay stress

  Mass of Ions in am
   POMASS =  28.09
  Ionic Valenz
   ZVAL   =   4.00
  Atomic Wigner-Seitz radii
   RWIGS  =  -1.00
  virtual crystal weights 
   VCA    =   1.00
   NELECT =      32.0000    total number of electrons
   NUPDOWN=      -1.0000    fix difference up-down

 DOS related values:
   EMIN   =  10.00;   EMAX   =-10.00  energy-range for DOS
   EFERMI =   0.00
   ISMEAR =     0;   SIGMA  =   0.02  broadening in eV -4-tet -1-fermi 0-gaus

 Electronic relaxation 2 (details)
   IALGO  =     68    algorithm
   LDIAG  =      T    sub-space diagonalisation (order eigenvalues)
   LSUBROT=      T    optimize rotation matrix (better conditioning)
   TURBO    =      0    0=normal 1=particle mesh
   IRESTART =      0    0=no restart 2=restart with 2 vectors
   NREBOOT  =      0    no. of reboots
   NMIN     =      0    reboot dimension
   EREF     =   0.00    reference energy to select bands
   IMIX   =      4    mixing-type and parameters
     AMIX     =   0.40;   BMIX     =  1.00
     AMIX_MAG =   1.60;   BMIX_MAG =  1.00
     AMIN     =   0.10
     WC   =   100.;   INIMIX=   1;  MIXPRE=   1;  MAXMIX= -45

 Intra band minimization:
   WEIMIN = 0.0000     energy-eigenvalue tresh-hold
   EBREAK =  0.52E-10  absolut break condition
   DEPER  =   0.30     relativ break condition  

   TIME   =   0.40     timestep for ELM

  volume/ion in A,a.u.               =      20.46       138.06
  Fermi-wavevector in a.u.,A,eV,Ry     =   0.950176  1.795573 12.283814  0.902835
  Thomas-Fermi vector in A             =   2.078528
 
 Write flags
   LWAVE  =      F    write WAVECAR
   LCHARG =      F    write CHGCAR
   LVTOT  =      F    write LOCPOT, total local potential
   LVHAR  =      F    write LOCPOT, Hartree potential only
   LELF   =      F    write electronic localiz. function (ELF)
   LORBIT =      0    0 simple, 1 ext, 2 COOP (PROOUT)


 Dipole corrections
   LMONO  =      F    monopole corrections only (constant potential shift)
   LDIPOL =      F    correct potential (dipole corrections)
   IDIPOL =      0    1-x, 2-y, 3-z, 4-all directions 
   EPSILON=  1.0000000 bulk dielectric constant

 Exchange correlation treatment:
   GGA     =    --    GGA type
   LEXCH   =     7    internal setting for exchange type
   VOSKOWN=      0    Vosko Wilk Nusair interpolation
   LHFCALC =     F    Hartree Fock is set to
   LHFONE  =     F    Hartree Fock one center treatment
   AEXX    =    0.0000 exact exchange contribution

 Linear response parameters
   LEPSILON=     T    determine dielectric tensor
   LRPA    =     F    only Hartree local field effects (RPA)
   LNABLA  =     F    use nabla operator in PAW spheres
   LVEL    =     F    velocity operator in full k-point grid
   LINTERFAST=   F  fast interpolation
   KINTER  =     0    interpolate to denser k-point grid
   CSHIFT  =0.1000    complex shift for real part using Kramers Kronig
   OMEGAMAX=  -1.0    maximum frequency
   DEG_THRESHOLD= 0.2000000E-02 threshold for treating states as degnerate
   RTIME   =    0.100 relaxation time in fs

 Orbital magnetization related:
   ORBITALMAG=     F  switch on orbital magnetization
   LCHIMAG   =     F  perturbation theory with respect to B field
   DQ        =  0.001000  dq finite difference perturbation B field



--------------------------------------------------------------------------------------------------------


 Static calculation
 charge density and potential will be updated during run
 non-spin polarized calculation
 RMM-DIIS sequential band-by-band and
  variant of blocked Davidson during initial phase
 perform sub-space diagonalisation
    before iterative eigenvector-optimisation
 modified Broyden-mixing scheme, WC =      100.0
 initial mixing is a Kerker type mixing with AMIX =  0.4000 and BMIX =      1.0000
 Hartree-type preconditioning will be used
 using additional bands           32
 reciprocal scheme for non local part
 use partial core corrections
 calculate Harris-corrections to forces 
   (improved forces if not selfconsistent)
 use gradient corrections 
 use of overlap-Matrix (Vanderbilt PP)
 Gauss-broadening in eV      SIGMA  =   0.02


--------------------------------------------------------------------------------------------------------


  energy-cutoff  :      200.00
  volume of cell :      163.67
      direct lattice vectors                 reciprocal lattice vectors
     5.470000000  0.000000000  0.000000000     0.182815356  0.000000000  0.000000000
     0.000000000  5.470000000  0.000000000     0.000000000  0.182815356  0.000000000
     0.000000000  0.000000000  5.470000000     0.000000000  0.000000000  0.182815356

  length of vectors
     5.470000000  5.470000000  5.470000000     0.182815356  0.182815356  0.182815356


 
 k-points in units of 2pi/SCALE and weight: Automatic mesh                          
   0.00000000  0.00000000  0.00000000       1.000
 
 k-points in reciprocal lattice and weights: Automatic mesh                          
   0.00000000  0.00000000  0.00000000       1.000
 
 position of ions in fractional coordinates (direct lattice) 
   0.99960024  0.99999836  0.00018940
   0.24999836  0.25018940  0.24924354
   0.50018940  0.49924354  0.99970370
   0.74924354  0.74970370  0.24993028
   0.49970370  0.99993028  0.49985908
   0.74993028  0.24985908  0.74998575
   0.99985908  0.49998575  0.49935876
   0.24998575  0.74935876  0.74955559
 
 position of ions in cartesian coordinates  (Angst):
   5.46781332  5.46999101  0.00103600
   1.36749101  1.36853600  1.36336217
   2.73603600  2.73086217  5.46837924
   4.09836217  4.10087924  1.36711865
   2.73337924  5.46961865  2.73422917
   4.10211865  1.36672917  4.10242203
   5.46922917  2.73492203  2.73149240
   1.36742203  4.09899240  4.10006908
 


--------------------------------------------------------------------------------------------------------


 k-point  1 :   0.0000 0.0000 0.0000  plane waves:    1021

 maximum and minimum number of plane-waves per node :      1021     1021

 maximum number of plane-waves:      1021
 maximum index in each direction: 
   IXMAX=    6   IYMAX=    6   IZMAX=    6
   IXMIN=   -6   IYMIN=   -6   IZMIN=   -6

 NGX is ok and might be reduce to  26
 NGY is ok and might be reduce to  26
 NGZ is ok and might be reduce to  26

 serial   3D FFT for wavefunctions
 parallel 3D FFT for charge:
    minimum data exchange during FFTs selected (reduces bandwidth)


 total amount of memory used by VASP on root node    32224. kBytes
========================================================================

   base      :      30000. kBytes
   nonl-proj :        202. kBytes
   fftplans  :        782. kBytes
   grid      :       1198. kBytes
   one-center:         24. kBytes
   wavefun   :         18. kBytes
 
 Broyden mixing: mesh for mixing (old mesh)
   NGX = 13   NGY = 13   NGZ = 13
  (NGX  = 56   NGY  = 56   NGZ  = 56)
  gives a total of   2197 points

 initial charge density was supplied:
 charge density of overlapping atoms calculated
 number of electron      32.0000000 magnetization 
 keeping initial charge density in first step


--------------------------------------------------------------------------------------------------------


 Maximum index for augmentation-charges         1786 (set IRDMAX)


--------------------------------------------------------------------------------------------------------


 First call to EWALD:  gamma=   0.324
 Maximum number of real-space cells 3x 3x 3
 Maximum number of reciprocal cells 3x 3x 3

 FEWALD executed in parallel
    FEWALD:  cpu time    0.00: real time    0.00


----------------------------------------- Iteration    1(   1)  ---------------------------------------


    POTLOK:  cpu time    0.03: real time    0.04
    SETDIJ:  cpu time    0.02: real time    0.02
     EDDAV:  cpu time    0.40: real time    0.40
       DOS:  cpu time    0.00: real time    0.00
    --------------------------------------------
      LOOP:  cpu time    0.46: real time    0.47

 eigenvalue-minimisations  :    96
 total energy-change (2. order) :-0.1013107E+02  (-0.7955889E+03)
 number of electron      32.0000000 magnetization 
 augmentation part       32.0000000 magnetization 

 Free energy of the ion-electron system (eV)
  ---------------------------------------------------
  alpha Z        PSCENC =        12.68944982
  Ewald energy   TEWEN  =      -907.56730837
  -1/2 Hartree   DENC   =       -45.63616295
  -exchange  EXHF       =         0.00000000
  -V(xc)+E(xc)   XCENC  =       -76.79672228
  PAW double counting   =       265.93453375     -123.69690146
  entropy T*S    EENTRO =        -0.00023462
  eigenvalues    EBANDS =        38.56828999
  atomic energy  EATOM  =       826.37398168
  ---------------------------------------------------
  free energy    TOTEN  =       -10.13107444 eV

  energy without entropy =      -10.13083982  energy(sigma->0) =      -10.13095713


--------------------------------------------------------------------------------------------------------




 average (electrostatic) potential at core
  the test charge radii are     0.9892
  (the norm of the test charge is              1.0000)
       1 -84.3470       2 -84.3530       3 -84.3561       4 -84.3516       5 -84.3492
       6 -84.3518       7 -84.3501       8 -84.3461
 
 
 
 E-fermi :   6.6069     XC(G=0):  -9.5533     alpha+bet :-11.7379


 k-point   1 :       0.0000    0.0000    0.0000
  band No.  band energies     occupation 
      1      -6.5896      2.00000
      2      -2.4095      2.00000
      3      -2.2557      2.00000
      4      -2.1242      2.00000
      5      -2.0312      2.00000
      6      -1.8709      2.00000
      7      -1.6756      2.00000
      8       2.7439      2.00000
      9       2.8507      2.00000
     10       2.9947      2.00000
     11       3.1591      2.00000
     12       3.3449      2.00000
     13       4.0773      2.00000
     14       6.1403      2.00000
     15       6.3657      2.00000
     16       6.5642      1.99749
     17       6.6496      0.00251
     18       6.8054      0.00000
     19       6.9061      0.00000
     20       7.1733      0.00000
     21       7.3773      0.00000
     22       8.0524      0.00000
     23       8.9805      0.00000
     24       9.3733      0.00000
     25      10.4527      0.00000
     26      11.4536      0.00000
     27      13.5064      0.00000
     28      14.7763      0.00000
     29      16.5573      0.00000
     30      16.8954      0.00000
     31      17.3596      0.00000
     32      17.5923      0.00000
     33      17.9273      0.00000
     34      18.1286      0.00000
     35      18.4930      0.00000
     36      18.8823      0.00000
     37      19.3665      0.00000
     38      19.5130      0.00000
     39      19.8640      0.00000
     40      20.2448      0.00000
     41      21.0875      0.00000
     42      21.6763      0.00000
     43      22.1779      0.00000
     44      22.7561      0.00000
     45      23.9034      0.00000
     46      24.4019      0.00000
     47      24.8124      0.00000
     48      25.8389      0.00000


--------------------------------------------------------------------------------------------------------


 soft charge-density along one line, spin component           1
         0         1         2         3         4         5         6         7         8         9
 total charge-density along one line
 
 pseudopotential strength for first ion, spin component:           1
 18.662   0.000   0.000   0.000   0.000   0.000   0.000   0.000
  0.000   0.006   0.000   0.000   0.000   0.000   0.000   0.000
  0.000   0.000   4.216   0.000   0.000  -0.004   0.000   0.000
  0.000   0.000   0.000   4.216   0.000   0.000  -0.004   0.000
  0.000   0.000   0.000   0.000   4.216   0.000   0.000  -0.004
  0.000   0.000  -0.004   0.000   0.000   0.005   0.000   0.000
  0.000   0.000   0.000  -0.004   0.000   0.000   0.005   0.000
  0.000   0.000   0.000   0.000  -0.004   0.000   0.000   0.005
 total augmentation occupancy for first ion, spin component:           1
  2.000   0.000   0.000   0.000   0.000   0.000   0.000   0.000
  0.000   0.000   0.000   0.000   0.000   0.000   0.000   0.000
  0.000   0.000   0.667   0.000   0.000   0.000   0.000   0.000
  0.000   0.000   0.000   0.667   0.000   0.000   0.000   0.000
  0.000   0.000   0.000   0.000   0.667   0.000   0.000   0.000
  0.000   0.000   0.000   0.000   0.000   0.000   0.000   0.000
  0.000   0.000   0.000   0.000   0.000   0.000   0.000   0.000
  0.000   0.000   0.000   0.000   0.000   0.000   0.000   0.000


----------------------------------------- Iteration    1(   2)  ---------------------------------------


     EDDAV:  cpu time    0.97: real time    0.97
       DOS:  cpu time    0.00: real time    0.00
    --------------------------------------------
      LOOP:  cpu time    0.97: real time    0.98

 eigenvalue-minimisations  :   144
 total energy-change (2. order) :-0.2431932E+02  (-0.2431689E+02)
 number of electron      32.0000000 magnetization 
 augmentation part       32.0000000 magnetization 

 Free energy of the ion-electron system (eV)
  ---------------------------------------------------
  alpha Z        PSCENC =        12.68944982
  Ewald energy   TEWEN  =      -907.56730837
  -1/2 Hartree   DENC   =       -45.63616295
  -exchange  EXHF       =         0.00000000
  -V(xc)+E(xc)   XCENC  =       -76.79672228
  PAW double counting   =       265.93453375     -123.69690146
  entropy T*S    EENTRO =         0.00000000
  eigenvalues    EBANDS =        14.24873469
  atomic energy  EATOM  =       826.37398168
  ---------------------------------------------------
  free energy    TOTEN  =       -34.45039511 eV

  energy without entropy =      -34.45039511  energy(sigma->0) =      -34.45039511


--------------------------------------------------------------------------------------------------------




 average (electrostatic) potential at core
  the test charge radii are     0.9892
  (the norm of the test charge is              1.0000)
       1 -84.3470       2 -84.3530       3 -84.3561       4 -84.3516       5 -84.3492
       6 -84.3518       7 -84.3501       8 -84.3461
 
 
 
 E-fermi :   5.2501     XC(G=0):  -9.5533     alpha+bet :-11.7379


 k-point   1 :       0.0000    0.0000    0.0000
  band No.  band energies     occupation 
      1      -6.6371      2.00000
      2      -2.6434      2.00000
      3      -2.6352      2.00000
      4      -2.6316      2.00000
      5      -2.6275      2.00000
      6      -2.6249      2.00000
      7      -2.6124      2.00000
      8       2.3761      2.00000
      9       2.3768      2.00000
     10       2.3806      2.00000
     11       2.3830      2.00000
     12       2.3846      2.00000
     13       2.3951      2.00000
     14       5.0718      2.00000
     15       5.0811      2.00000
     16       5.0875      2.00000
     17       6.1487      0.00000
     18       6.1497      0.00000
     19       6.1533      0.00000
     20       6.1588      0.00000
     21       6.1615      0.00000
     22       6.1677      0.00000
     23       7.8544      0.00000
     24       7.8553      0.00000
     25       7.8619      0.00000
     26       8.1266      0.00000
     27      13.2004      0.00000
     28      13.2622      0.00000
     29      13.2700      0.00000
     30      15.0976      0.00000
     31      15.1321      0.00000
     32      15.1753      0.00000
     33      15.2518      0.00000
     34      15.3102      0.00000
     35      15.6321      0.00000
     36      16.3883      0.00000
     37      16.4179      0.00000
     38      16.4506      0.00000
     39      16.5289      0.00000
     40      16.7205      0.00000
     41      16.7526      0.00000
     42      16.7662      0.00000
     43      16.8673      0.00000
     44      17.2255      0.00000
     45      17.9110      0.00000
     46      17.9574      0.00000
     47      17.9885      0.00000
     48      18.0188      0.00000


--------------------------------------------------------------------------------------------------------


 soft charge-density along one line, spin component           1
         0         1         2         3         4         5         6         7         8         9
 total charge-density along one line
 
 pseudopotential strength for first ion, spin component:           1
 18.662   0.000   0.000   0.000   0.000   0.000   0.000   0.000
  0.000   0.006   0.000   0.000   0.000   0.000   0.000   0.000
  0.000   0.000   4.216   0.000   0.000  -0.004   0.000   0.000
  0.000   0.000   0.000   4.216   0.000   0.000  -0.004   0.000
  0.000   0.000   0.000   0.000   4.216   0.000   0.000  -0.004
  0.000   0.000  -0.004   0.000   0.000   0.005   0.000   0.000
  0.000   0.000   0.000  -0.004   0.000   0.000   0.005   0.000
  0.000   0.000   0.000   0.000  -0.004   0.000   0.000   0.005
 total augmentation occupancy for first ion, spin component:           1
  2.000   0.000   0.000   0.000   0.000   0.000   0.000   0.000
  0.000   0.000   0.000   0.000   0.000   0.000   0.000   0.000
  0.000   0.000   0.667   0.000   0.000   0.000   0.000   0.000
  0.000   0.000   0.000   0.667   0.000   0.000   0.000   0.000
  0.000   0.000   0.000   0.000   0.667   0.000   0.000   0.000
  0.000   0.000   0.000   0.000   0.000   0.000   0.000   0.000
  0.000   0.000   0.000   0.000   0.000   0.000   0.000   0.000
  0.000   0.000   0.000   0.000   0.000   0.000   0.000   0.000


----------------------------------------- Iteration    1(   3)  ---------------------------------------


     EDDAV:  cpu time    0.39: real time    0.39
       DOS:  cpu time    0.00: real time    0.00
    --------------------------------------------
      LOOP:  cpu time    0.39: real time    0.40

 eigenvalue-minimisations  :    96
 total energy-change (2. order) :-0.1674257E+00  (-0.1674257E+00)
 number of electron      32.0000000 magnetization 
 augmentation part       32.0000000 magnetization 

 Free energy of the ion-electron system (eV)
  ---------------------------------------------------
  alpha Z        PSCENC =        12.68944982
  Ewald energy   TEWEN  =      -907.56730837
  -1/2 Hartree   DENC   =       -45.63616295
  -exchange  EXHF       =         0.00000000
  -V(xc)+E(xc)   XCENC  =       -76.79672228
  PAW double counting   =       265.93453375     -123.69690146
  entropy T*S    EENTRO =         0.00000000
  eigenvalues    EBANDS =        14.08130898
  atomic energy  EATOM  =       826.37398168
  ---------------------------------------------------
  free energy    TOTEN  =       -34.61782083 eV

  energy without entropy =      -34.61782083  energy(sigma->0) =      -34.61782083


--------------------------------------------------------------------------------------------------------




 average (electrostatic) potential at core
  the test charge radii are     0.9892
  (the norm of the test charge is              1.0000)
       1 -84.3470       2 -84.3530       3 -84.3561       4 -84.3516       5 -84.3492
       6 -84.3518       7 -84.3501       8 -84.3461
 
 
 
 E-fermi :   5.2116     XC(G=0):  -9.5533     alpha+bet :-11.7379


 k-point   1 :       0.0000    0.0000    0.0000
  band No.  band energies     occupation 
      1      -6.6372      2.00000
      2      -2.6456      2.00000
      3      -2.6364      2.00000
      4      -2.6330      2.00000
      5      -2.6303      2.00000
      6      -2.6279      2.00000
      7      -2.6149      2.00000
      8       2.3719      2.00000
      9       2.3741      2.00000
     10       2.3779      2.00000
     11       2.3787      2.00000
     12       2.3791      2.00000
     13       2.3842      2.00000
     14       5.0634      2.00000
     15       5.0669      2.00000
     16       5.0697      2.00000
     17       6.1439      0.00000
     18       6.1475      0.00000
     19       6.1509      0.00000
     20       6.1555      0.00000
     21       6.1580      0.00000
     22       6.1633      0.00000
     23       7.8478      0.00000
     24       7.8494      0.00000
     25       7.8514      0.00000
     26       8.1178      0.00000
     27      13.1845      0.00000
     28      13.1865      0.00000
     29      13.2693      0.00000
     30      15.0811      0.00000
     31      15.0879      0.00000
     32      15.0976      0.00000
     33      15.1117      0.00000
     34      15.1267      0.00000
     35      15.1790      0.00000
     36      16.3225      0.00000
     37      16.3293      0.00000
     38      16.3383      0.00000
     39      16.3593      0.00000
     40      16.4330      0.00000
     41      16.4890      0.00000
     42      16.7112      0.00000
     43      16.7171      0.00000
     44      16.8139      0.00000
     45      17.8836      0.00000
     46      17.8969      0.00000
     47      17.9151      0.00000
     48      17.9389      0.00000


--------------------------------------------------------------------------------------------------------


 soft charge-density along one line, spin component           1
         0         1         2         3         4         5         6         7         8         9
 total charge-density along one line
 
 pseudopotential strength for first ion, spin component:           1
 18.662   0.000   0.000   0.000   0.000   0.000   0.000   0.000
  0.000   0.006   0.000   0.000   0.000   0.000   0.000   0.000
  0.000   0.000   4.216   0.000   0.000  -0.004   0.000   0.000
  0.000   0.000   0.000   4.216   0.000   0.000  -0.004   0.000
  0.000   0.000   0.000   0.000   4.216   0.000   0.000  -0.004
  0.000   0.000  -0.004   0.000   0.000   0.005   0.000   0.000
  0.000   0.000   0.000  -0.004   0.000   0.000   0.005   0.000
  0.000   0.000   0.000   0.000  -0.004   0.000   0.000   0.005
 total augmentation occupancy for first ion, spin component:           1
  2.000   0.000   0.000   0.000   0.000   0.000   0.000   0.000
  0.000   0.000   0.000   0.000   0.000   0.000   0.000   0.000
  0.000   0.000   0.667   0.000   0.000   0.000   0.000   0.000
  0.000   0.000   0.000   0.667   0.000   0.000   0.000   0.000
  0.000   0.000   0.000   0.000   0.667   0.000   0.000   0.000
  0.000   0.000   0.000   0.000   0.000   0.000   0.000   0.000
  0.000   0.000   0.000   0.000   0.000   0.000   0.000   0.000
  0.000   0.000   0.000   0.000   0.000   0.000   0.000   0.000


----------------------------------------- Iteration    1(   4)  ---------------------------------------


     EDDAV:  cpu time    1.99: real time    2.00
       DOS:  cpu time    0.00: real time    0.00
    --------------------------------------------
      LOOP:  cpu time    2.00: real time    2.00

 eigenvalue-minimisations  :   192
 total energy-change (2. order) :-0.3546922E-03  (-0.3546922E-03)
 number of electron      32.0000000 magnetization 
 augmentation part       32.0000000 magnetization 

 Free energy of the ion-electron system (eV)
  ---------------------------------------------------
  alpha Z        PSCENC =        12.68944982
  Ewald energy   TEWEN  =      -907.56730837
  -1/2 Hartree   DENC   =       -45.63616295
  -exchange  EXHF       =         0.00000000
  -V(xc)+E(xc)   XCENC  =       -76.79672228
  PAW double counting   =       265.93453375     -123.69690146
  entropy T*S    EENTRO =         0.00000000
  eigenvalues    EBANDS =        14.08095429
  atomic energy  EATOM  =       826.37398168
  ---------------------------------------------------
  free energy    TOTEN  =       -34.61817552 eV

  energy without entropy =      -34.61817552  energy(sigma->0) =      -34.61817552


--------------------------------------------------------------------------------------------------------




 average (electrostatic) potential at core
  the test charge radii are     0.9892
  (the norm of the test charge is              1.0000)
       1 -84.3470       2 -84.3530       3 -84.3561       4 -84.3516       5 -84.3492
       6 -84.3518       7 -84.3501       8 -84.3461
 
 
 
 E-fermi :   5.2004     XC(G=0):  -9.5533     alpha+bet :-11.7379


 k-point   1 :       0.0000    0.0000    0.0000
  band No.  band energies     occupation 
      1      -6.6372      2.00000
      2      -2.6456      2.00000
      3      -2.6364      2.00000
      4      -2.6330      2.00000
      5      -2.6303      2.00000
      6      -2.6280      2.00000
      7      -2.6149      2.00000
      8       2.3719      2.00000
      9       2.3741      2.00000
     10       2.3779      2.00000
     11       2.3787      2.00000
     12       2.3791      2.00000
     13       2.3842      2.00000
     14       5.0634      2.00000
     15       5.0669      2.00000
     16       5.0696      2.00000
     17       6.1439      0.00000
     18       6.1475      0.00000
     19       6.1509      0.00000
     20       6.1555      0.00000
     21       6.1580      0.00000
     22       6.1633      0.00000
     23       7.8478      0.00000
     24       7.8493      0.00000
     25       7.8514      0.00000
     26       8.1178      0.00000
     27      13.1837      0.00000
     28      13.1838      0.00000
     29      13.2693      0.00000
     30      15.0749      0.00000
     31      15.0822      0.00000
     32      15.0837      0.00000
     33      15.0846      0.00000
     34      15.0892      0.00000
     35      15.0941      0.00000
     36      16.2967      0.00000
     37      16.3000      0.00000
     38      16.3113      0.00000
     39      16.3135      0.00000
     40      16.3163      0.00000
     41      16.3250      0.00000
     42      16.7024      0.00000
     43      16.7044      0.00000
     44      16.7063      0.00000
     45      17.8740      0.00000
     46      17.8804      0.00000
     47      17.8878      0.00000
     48      17.8925      0.00000


--------------------------------------------------------------------------------------------------------


 soft charge-density along one line, spin component           1
         0         1         2         3         4         5         6         7         8         9
 total charge-density along one line
 
 pseudopotential strength for first ion, spin component:           1
 18.662   0.000   0.000   0.000   0.000   0.000   0.000   0.000
  0.000   0.006   0.000   0.000   0.000   0.000   0.000   0.000
  0.000   0.000   4.216   0.000   0.000  -0.004   0.000   0.000
  0.000   0.000   0.000   4.216   0.000   0.000  -0.004   0.000
  0.000   0.000   0.000   0.000   4.216   0.000   0.000  -0.004
  0.000   0.000  -0.004   0.000   0.000   0.005   0.000   0.000
  0.000   0.000   0.000  -0.004   0.000   0.000   0.005   0.000
  0.000   0.000   0.000   0.000  -0.004   0.000   0.000   0.005
 total augmentation occupancy for first ion, spin component:           1
  2.000   0.000   0.000   0.000   0.000   0.000   0.000   0.000
  0.000   0.000   0.000   0.000   0.000   0.000   0.000   0.000
  0.000   0.000   0.667   0.000   0.000   0.000   0.000   0.000
  0.000   0.000   0.000   0.667   0.000   0.000   0.000   0.000
  0.000   0.000   0.000   0.000   0.667   0.000   0.000   0.000
  0.000   0.000   0.000   0.000   0.000   0.000   0.000   0.000
  0.000   0.000   0.000   0.000   0.000   0.000   0.000   0.000
  0.000   0.000   0.000   0.000   0.000   0.000   0.000   0.000


----------------------------------------- Iteration    1(   5)  ---------------------------------------


     EDDAV:  cpu time    0.38: real time    0.38
       DOS:  cpu time    0.00: real time    0.00
    CHARGE:  cpu time    0.02: real time    0.02
    MIXING:  cpu time    0.00: real time    0.00
    --------------------------------------------
      LOOP:  cpu time    0.41: real time    0.42

 eigenvalue-minimisations  :    96
 total energy-change (2. order) :-0.3049990E-08  (-0.3050325E-08)
 number of electron      31.9999999 magnetization 
 augmentation part       -1.8053332 magnetization 

 Broyden mixing:
  rms(total) = 0.79306E+00    rms(broyden)= 0.79301E+00
  rms(prec ) = 0.15229E+01
  weight for this iteration     100.00

 Free energy of the ion-electron system (eV)
  ---------------------------------------------------
  alpha Z        PSCENC =        12.68944982
  Ewald energy   TEWEN  =      -907.56730837
  -1/2 Hartree   DENC   =       -45.63616295
  -exchange  EXHF       =         0.00000000
  -V(xc)+E(xc)   XCENC  =       -76.79672228
  PAW double counting   =       265.93453375     -123.69690146
  entropy T*S    EENTRO =         0.00000000
  eigenvalues    EBANDS =        14.08095428
  atomic energy  EATOM  =       826.37398168
  ---------------------------------------------------
  free energy    TOTEN  =       -34.61817552 eV

  energy without entropy =      -34.61817552  energy(sigma->0) =      -34.61817552


--------------------------------------------------------------------------------------------------------




 average (electrostatic) potential at core
  the test charge radii are     0.9892
  (the norm of the test charge is              1.0000)
       1 -84.3470       2 -84.3530       3 -84.3561       4 -84.3516       5 -84.3492
       6 -84.3518       7 -84.3501       8 -84.3461
 
 
 
 E-fermi :   5.1965     XC(G=0):  -9.5533     alpha+bet :-11.7379


 k-point   1 :       0.0000    0.0000    0.0000
  band No.  band energies     occupation 
      1      -6.6372      2.00000
      2      -2.6456      2.00000
      3      -2.6364      2.00000
      4      -2.6330      2.00000
      5      -2.6303      2.00000
      6      -2.6280      2.00000
      7      -2.6149      2.00000
      8       2.3719      2.00000
      9       2.3741      2.00000
     10       2.3779      2.00000
     11       2.3787      2.00000
     12       2.3791      2.00000
     13       2.3842      2.00000
     14       5.0634      2.00000
     15       5.0669      2.00000
     16       5.0696      2.00000
     17       6.1439      0.00000
     18       6.1475      0.00000
     19       6.1509      0.00000
     20       6.1555      0.00000
     21       6.1580      0.00000
     22       6.1633      0.00000
     23       7.8478      0.00000
     24       7.8493      0.00000
     25       7.8514      0.00000
     26       8.1178      0.00000
     27      13.1837      0.00000
     28      13.1838      0.00000
     29      13.2693      0.00000
     30      15.0748      0.00000
     31      15.0821      0.00000
     32      15.0836      0.00000
     33      15.0846      0.00000
     34      15.0891      0.00000
     35      15.0941      0.00000
     36      16.2965      0.00000
     37      16.2997      0.00000
     38      16.3110      0.00000
     39      16.3130      0.00000
     40      16.3158      0.00000
     41      16.3248      0.00000
     42      16.7023      0.00000
     43      16.7042      0.00000
     44      16.7062      0.00000
     45      17.8705      0.00000
     46      17.8771      0.00000
     47      17.8802      0.00000
     48      17.8844      0.00000


--------------------------------------------------------------------------------------------------------


 soft charge-density along one line, spin component           1
         0         1         2         3         4         5         6         7         8         9
 total charge-density along one line
 
 pseudopotential strength for first ion, spin component:           1
 18.662   0.000   0.000   0.000   0.000   0.000   0.000   0.000
  0.000   0.006   0.000   0.000   0.000   0.000   0.000   0.000
  0.000   0.000   4.216   0.000   0.000  -0.004   0.000   0.000
  0.000   0.000   0.000   4.216   0.000   0.000  -0.004   0.000
  0.000   0.000   0.000   0.000   4.216   0.000   0.000  -0.004
  0.000   0.000  -0.004   0.000   0.000   0.005   0.000   0.000
  0.000   0.000   0.000  -0.004   0.000   0.000   0.005   0.000
  0.000   0.000   0.000   0.000  -0.004   0.000   0.000   0.005
 total augmentation occupancy for first ion, spin component:           1
  1.380  -1.050   0.002   0.001  -0.001  -0.002  -0.001   0.001
 -1.050   0.916  -0.001   0.000   0.000   0.003   0.000  -0.001
  0.002  -0.001   1.165   0.000   0.001  -0.758   0.001  -0.001
  0.001   0.000   0.000   1.163   0.001   0.001  -0.756  -0.002
 -0.001   0.000   0.001   0.001   1.165  -0.001  -0.002  -0.758
 -0.002   0.003  -0.758   0.001  -0.001   0.569  -0.001   0.001
 -0.001   0.000   0.001  -0.756  -0.002  -0.001   0.567   0.002
  0.001  -0.001  -0.001  -0.002  -0.758   0.001   0.002   0.569


----------------------------------------- Iteration    1(   6)  ---------------------------------------


    POTLOK:  cpu time    0.02: real time    0.02
    SETDIJ:  cpu time    0.02: real time    0.02
    EDDIAG:  cpu time    0.03: real time    0.03
  RMM-DIIS:  cpu time    0.02: real time    0.02
    ORTHCH:  cpu time    0.01: real time    0.01
       DOS:  cpu time    0.00: real time    0.00
    CHARGE:  cpu time    0.02: real time    0.02
    MIXING:  cpu time    0.00: real time    0.00
    --------------------------------------------
      LOOP:  cpu time    0.13: real time    0.13

 eigenvalue-minimisations  :    96
 total energy-change (2. order) : 0.1001714E+01  (-0.3197938E-01)
 number of electron      31.9999999 magnetization 
 augmentation part       -1.7684056 magnetization 

 Broyden mixing:
  rms(total) = 0.47399E+00    rms(broyden)= 0.47399E+00
  rms(prec ) = 0.91066E+00
  weight for this iteration     100.00

 eigenvalues of (default mixing * dielectric matrix)
  average eigenvalue GAMMA=   2.4573
  2.4573

 Free energy of the ion-electron system (eV)
  ---------------------------------------------------
  alpha Z        PSCENC =        12.68944982
  Ewald energy   TEWEN  =      -907.56730837
  -1/2 Hartree   DENC   =       -54.68276647
  -exchange  EXHF       =         0.00000000
  -V(xc)+E(xc)   XCENC  =       -75.44940641
  PAW double counting   =       286.06067803     -144.35898682
  entropy T*S    EENTRO =         0.00000000
  eigenvalues    EBANDS =        23.31789673
  atomic energy  EATOM  =       826.37398168
  ---------------------------------------------------
  free energy    TOTEN  =       -33.61646182 eV

  energy without entropy =      -33.61646182  energy(sigma->0) =      -33.61646182


--------------------------------------------------------------------------------------------------------




 average (electrostatic) potential at core
  the test charge radii are     0.9892
  (the norm of the test charge is              1.0000)
       1 -83.8311       2 -83.8340       3 -83.8355       4 -83.8333       5 -83.8322
       6 -83.8334       7 -83.8326       8 -83.8306
 
 
 
 E-fermi :   5.5487     XC(G=0):  -9.4504     alpha+bet :-11.7379


 k-point   1 :       0.0000    0.0000    0.0000
  band No.  band energies     occupation 
      1      -6.3787      2.00000
      2      -2.3445      2.00000
      3      -2.3368      2.00000
      4      -2.3338      2.00000
      5      -2.3317      2.00000
      6      -2.3295      2.00000
      7      -2.3183      2.00000
      8       2.6338      2.00000
      9       2.6355      2.00000
     10       2.6389      2.00000
     11       2.6396      2.00000
     12       2.6400      2.00000
     13       2.6445      2.00000
     14       5.3968      2.00000
     15       5.4003      2.00000
     16       5.4030      2.00000
     17       6.2594      0.00000
     18       6.2627      0.00000
     19       6.2655      0.00000
     20       6.2697      0.00000
     21       6.2719      0.00000
     22       6.2766      0.00000
     23       8.0552      0.00000
     24       8.0567      0.00000
     25       8.0588      0.00000
     26       8.4862      0.00000
     27      13.3050      0.00000
     28      13.3568      0.00000
     29      13.3569      0.00000
     30      15.3718      0.00000
     31      15.3785      0.00000
     32      15.3798      0.00000
     33      15.3807      0.00000
     34      15.3852      0.00000
     35      15.3894      0.00000
     36      16.5335      0.00000
     37      16.5365      0.00000
     38      16.5469      0.00000
     39      16.5486      0.00000
     40      16.5512      0.00000
     41      16.5593      0.00000
     42      16.7469      0.00000
     43      16.7488      0.00000
     44      16.7508      0.00000
     45      18.1591      0.00000
     46      18.1654      0.00000
     47      18.1693      0.00000
     48      18.1738      0.00000


--------------------------------------------------------------------------------------------------------


 soft charge-density along one line, spin component           1
         0         1         2         3         4         5         6         7         8         9
 total charge-density along one line
 
 pseudopotential strength for first ion, spin component:           1
 18.635  -0.001   0.000   0.000   0.000   0.000   0.000   0.000
 -0.001   0.006   0.000   0.000   0.000   0.000   0.000   0.000
  0.000   0.000   4.221   0.000   0.000  -0.004   0.000   0.000
  0.000   0.000   0.000   4.221   0.000   0.000  -0.004   0.000
  0.000   0.000   0.000   0.000   4.221   0.000   0.000  -0.004
  0.000   0.000  -0.004   0.000   0.000   0.005   0.000   0.000
  0.000   0.000   0.000  -0.004   0.000   0.000   0.005   0.000
  0.000   0.000   0.000   0.000  -0.004   0.000   0.000   0.005
 total augmentation occupancy for first ion, spin component:           1
  1.351  -1.089   0.002   0.001  -0.001  -0.003  -0.001   0.001
 -1.089   0.995  -0.001   0.000   0.000   0.003   0.001  -0.001
  0.002  -0.001   1.147  -0.001   0.000  -0.782   0.001  -0.001
  0.001   0.000  -0.001   1.145   0.001   0.001  -0.780  -0.002
 -0.001   0.000   0.000   0.001   1.147  -0.001  -0.002  -0.781
 -0.003   0.003  -0.782   0.001  -0.001   0.607  -0.001   0.002
 -0.001   0.001   0.001  -0.780  -0.002  -0.001   0.605   0.002
  0.001  -0.001  -0.001  -0.002  -0.781   0.002   0.002   0.607


----------------------------------------- Iteration    1(   7)  ---------------------------------------


    POTLOK:  cpu time    0.02: real time    0.02
    SETDIJ:  cpu time    0.02: real time    0.02
    EDDIAG:  cpu time    0.02: real time    0.02
  RMM-DIIS:  cpu time    0.03: real time    0.03
    ORTHCH:  cpu time    0.01: real time    0.01
       DOS:  cpu time    0.00: real time    0.00
    CHARGE:  cpu time    0.02: real time    0.02
    MIXING:  cpu time    0.00: real time    0.00
    --------------------------------------------
      LOOP:  cpu time    0.13: real time    0.13

 eigenvalue-minimisations  :    96
 total energy-change (2. order) : 0.4246691E+00  (-0.7388207E-01)
 number of electron      31.9999999 magnetization 
 augmentation part       -1.7214498 magnetization 

 Broyden mixing:
  rms(total) = 0.46248E-01    rms(broyden)= 0.46238E-01
  rms(prec ) = 0.78451E-01
  weight for this iteration     100.00

 eigenvalues of (default mixing * dielectric matrix)
  average eigenvalue GAMMA=   2.5301
  2.5301  2.5301

 Free energy of the ion-electron system (eV)
  ---------------------------------------------------
  alpha Z        PSCENC =        12.68944982
  Ewald energy   TEWEN  =      -907.56730837
  -1/2 Hartree   DENC   =       -70.51403835
  -exchange  EXHF       =         0.00000000
  -V(xc)+E(xc)   XCENC  =       -73.00922625
  PAW double counting   =       313.72492238     -172.73694199
  entropy T*S    EENTRO =         0.00000000
  eigenvalues    EBANDS =        37.84736834
  atomic energy  EATOM  =       826.37398168
  ---------------------------------------------------
  free energy    TOTEN  =       -33.19179275 eV

  energy without entropy =      -33.19179275  energy(sigma->0) =      -33.19179275


--------------------------------------------------------------------------------------------------------




 average (electrostatic) potential at core
  the test charge radii are     0.9892
  (the norm of the test charge is              1.0000)
       1 -83.1442       2 -83.1461       3 -83.1471       4 -83.1463       5 -83.1450
       6 -83.1458       7 -83.1451       8 -83.1446
 
 
 
 E-fermi :   6.0971     XC(G=0):  -9.2018     alpha+bet :-11.7379


 k-point   1 :       0.0000    0.0000    0.0000
  band No.  band energies     occupation 
      1      -5.9621      2.00000
      2      -1.8762      2.00000
      3      -1.8697      2.00000
      4      -1.8671      2.00000
      5      -1.8655      2.00000
      6      -1.8634      2.00000
      7      -1.8540      2.00000
      8       3.0470      2.00000
      9       3.0482      2.00000
     10       3.0516      2.00000
     11       3.0521      2.00000
     12       3.0526      2.00000
     13       3.0563      2.00000
     14       5.9216      2.00000
     15       5.9248      2.00000
     16       5.9275      2.00000
     17       6.5189      0.00000
     18       6.5220      0.00000
     19       6.5241      0.00000
     20       6.5277      0.00000
     21       6.5295      0.00000
     22       6.5337      0.00000
     23       8.3803      0.00000
     24       8.3819      0.00000
     25       8.3839      0.00000
     26       9.0452      0.00000
     27      13.6013      0.00000
     28      13.6204      0.00000
     29      13.6204      0.00000
     30      15.8226      0.00000
     31      15.8288      0.00000
     32      15.8299      0.00000
     33      15.8307      0.00000
     34      15.8347      0.00000
     35      15.8386      0.00000
     36      16.9014      0.00000
     37      16.9028      0.00000
     38      16.9054      0.00000
     39      16.9548      0.00000
     40      16.9570      0.00000
     41      16.9659      0.00000
     42      16.9674      0.00000
     43      16.9696      0.00000
     44      16.9776      0.00000
     45      18.6572      0.00000
     46      18.6630      0.00000
     47      18.6715      0.00000
     48      18.6757      0.00000


--------------------------------------------------------------------------------------------------------


 soft charge-density along one line, spin component           1
         0         1         2         3         4         5         6         7         8         9
 total charge-density along one line
 
 pseudopotential strength for first ion, spin component:           1
 18.596  -0.001   0.000   0.000   0.000   0.000   0.000   0.000
 -0.001   0.006   0.000   0.000   0.000   0.000   0.000   0.000
  0.000   0.000   4.227   0.000   0.000  -0.005   0.000   0.000
  0.000   0.000   0.000   4.227   0.000   0.000  -0.005   0.000
  0.000   0.000   0.000   0.000   4.227   0.000   0.000  -0.005
  0.000   0.000  -0.005   0.000   0.000   0.005   0.000   0.000
  0.000   0.000   0.000  -0.005   0.000   0.000   0.005   0.000
  0.000   0.000   0.000   0.000  -0.005   0.000   0.000   0.005
 total augmentation occupancy for first ion, spin component:           1
  1.314  -1.111   0.002   0.000  -0.001  -0.003  -0.001   0.001
 -1.111   1.056   0.000   0.000   0.000   0.003   0.001  -0.001
  0.002   0.000   1.123  -0.001   0.000  -0.805   0.001  -0.001
  0.000   0.000  -0.001   1.120   0.002   0.001  -0.803  -0.002
 -0.001   0.000   0.000   0.002   1.122  -0.001  -0.002  -0.805
 -0.003   0.003  -0.805   0.001  -0.001   0.651  -0.001   0.002
 -0.001   0.001   0.001  -0.803  -0.002  -0.001   0.649   0.003
  0.001  -0.001  -0.001  -0.002  -0.805   0.002   0.003   0.651


----------------------------------------- Iteration    1(   8)  ---------------------------------------


    POTLOK:  cpu time    0.02: real time    0.02
    SETDIJ:  cpu time    0.02: real time    0.02
    EDDIAG:  cpu time    0.02: real time    0.02
  RMM-DIIS:  cpu time    0.03: real time    0.03
    ORTHCH:  cpu time    0.01: real time    0.01
       DOS:  cpu time    0.00: real time    0.00
    CHARGE:  cpu time    0.03: real time    0.03
    MIXING:  cpu time    0.00: real time    0.00
    --------------------------------------------
      LOOP:  cpu time    0.13: real time    0.13

 eigenvalue-minimisations  :    96
 total energy-change (2. order) :-0.3198286E-01  (-0.2161884E-02)
 number of electron      31.9999999 magnetization 
 augmentation part       -1.7275420 magnetization 

 Broyden mixing:
  rms(total) = 0.74876E-02    rms(broyden)= 0.74871E-02
  rms(prec ) = 0.17952E-01
  weight for this iteration     100.00

 eigenvalues of (default mixing * dielectric matrix)
  average eigenvalue GAMMA=   2.1213
  1.2742  2.8651  2.2245

 Free energy of the ion-electron system (eV)
  ---------------------------------------------------
  alpha Z        PSCENC =        12.68944982
  Ewald energy   TEWEN  =      -907.56730837
  -1/2 Hartree   DENC   =       -70.39908220
  -exchange  EXHF       =         0.00000000
  -V(xc)+E(xc)   XCENC  =       -72.96565473
  PAW double counting   =       307.36302163     -166.19024222
  entropy T*S    EENTRO =         0.00000000
  eigenvalues    EBANDS =        37.47205878
  atomic energy  EATOM  =       826.37398168
  ---------------------------------------------------
  free energy    TOTEN  =       -33.22377561 eV

  energy without entropy =      -33.22377561  energy(sigma->0) =      -33.22377561


--------------------------------------------------------------------------------------------------------




 average (electrostatic) potential at core
  the test charge radii are     0.9892
  (the norm of the test charge is              1.0000)
       1 -83.2456       2 -83.2502       3 -83.2526       4 -83.2494       5 -83.2474
       6 -83.2493       7 -83.2480       8 -83.2452
 
 
 
 E-fermi :   6.0361     XC(G=0):  -9.1504     alpha+bet :-11.7379


 k-point   1 :       0.0000    0.0000    0.0000
  band No.  band energies     occupation 
      1      -5.9631      2.00000
      2      -1.8889      2.00000
      3      -1.8816      2.00000
      4      -1.8788      2.00000
      5      -1.8769      2.00000
      6      -1.8747      2.00000
      7      -1.8642      2.00000
      8       3.0351      2.00000
      9       3.0364      2.00000
     10       3.0401      2.00000
     11       3.0406      2.00000
     12       3.0413      2.00000
     13       3.0453      2.00000
     14       5.9055      2.00000
     15       5.9088      2.00000
     16       5.9114      2.00000
     17       6.5694      0.00000
     18       6.5725      0.00000
     19       6.5751      0.00000
     20       6.5786      0.00000
     21       6.5807      0.00000
     22       6.5850      0.00000
     23       8.3696      0.00000
     24       8.3712      0.00000
     25       8.3732      0.00000
     26       9.0381      0.00000
     27      13.6064      0.00000
     28      13.6065      0.00000
     29      13.7784      0.00000
     30      15.8076      0.00000
     31      15.8141      0.00000
     32      15.8153      0.00000
     33      15.8162      0.00000
     34      15.8199      0.00000
     35      15.8243      0.00000
     36      16.9377      0.00000
     37      16.9394      0.00000
     38      16.9421      0.00000
     39      16.9615      0.00000
     40      16.9635      0.00000
     41      16.9723      0.00000
     42      16.9740      0.00000
     43      16.9762      0.00000
     44      16.9849      0.00000
     45      18.6939      0.00000
     46      18.7003      0.00000
     47      18.7100      0.00000
     48      18.7139      0.00000


--------------------------------------------------------------------------------------------------------


 soft charge-density along one line, spin component           1
         0         1         2         3         4         5         6         7         8         9
 total charge-density along one line
 
 pseudopotential strength for first ion, spin component:           1
 18.599  -0.001   0.000   0.000   0.000   0.000   0.000   0.000
 -0.001   0.006   0.000   0.000   0.000   0.000   0.000   0.000
  0.000   0.000   4.224   0.000   0.000  -0.005   0.000   0.000
  0.000   0.000   0.000   4.224   0.000   0.000  -0.005   0.000
  0.000   0.000   0.000   0.000   4.224   0.000   0.000  -0.005
  0.000   0.000  -0.005   0.000   0.000   0.005   0.000   0.000
  0.000   0.000   0.000  -0.005   0.000   0.000   0.005   0.000
  0.000   0.000   0.000   0.000  -0.005   0.000   0.000   0.005
 total augmentation occupancy for first ion, spin component:           1
  1.320  -1.091   0.002   0.001  -0.001  -0.003  -0.001   0.001
 -1.091   1.019  -0.001   0.000   0.000   0.003   0.001  -0.001
  0.002  -0.001   1.124  -0.001   0.000  -0.801   0.001  -0.001
  0.001   0.000  -0.001   1.121   0.002   0.001  -0.799  -0.002
 -0.001   0.000   0.000   0.002   1.123  -0.001  -0.002  -0.800
 -0.003   0.003  -0.801   0.001  -0.001   0.646  -0.001   0.001
 -0.001   0.001   0.001  -0.799  -0.002  -0.001   0.645   0.002
  0.001  -0.001  -0.001  -0.002  -0.800   0.001   0.002   0.646


----------------------------------------- Iteration    1(   9)  ---------------------------------------


    POTLOK:  cpu time    0.02: real time    0.02
    SETDIJ:  cpu time    0.02: real time    0.02
    EDDIAG:  cpu time    0.02: real time    0.02
  RMM-DIIS:  cpu time    0.04: real time    0.04
    ORTHCH:  cpu time    0.01: real time    0.01
       DOS:  cpu time    0.00: real time    0.00
    CHARGE:  cpu time    0.02: real time    0.02
    MIXING:  cpu time    0.00: real time    0.00
    --------------------------------------------
      LOOP:  cpu time    0.13: real time    0.14

 eigenvalue-minimisations  :   107
 total energy-change (2. order) :-0.1132943E-02  (-0.1264933E-03)
 number of electron      31.9999999 magnetization 
 augmentation part       -1.7274599 magnetization 

 Broyden mixing:
  rms(total) = 0.41743E-02    rms(broyden)= 0.41742E-02
  rms(prec ) = 0.68398E-02
  weight for this iteration     100.00

 eigenvalues of (default mixing * dielectric matrix)
  average eigenvalue GAMMA=   2.3017
  0.9886  3.2451  2.6856  2.2875

 Free energy of the ion-electron system (eV)
  ---------------------------------------------------
  alpha Z        PSCENC =        12.68944982
  Ewald energy   TEWEN  =      -907.56730837
  -1/2 Hartree   DENC   =       -70.79591715
  -exchange  EXHF       =         0.00000000
  -V(xc)+E(xc)   XCENC  =       -72.90640279
  PAW double counting   =       307.71506611     -166.55272696
  entropy T*S    EENTRO =         0.00000000
  eigenvalues    EBANDS =        37.81894911
  atomic energy  EATOM  =       826.37398168
  ---------------------------------------------------
  free energy    TOTEN  =       -33.22490855 eV

  energy without entropy =      -33.22490855  energy(sigma->0) =      -33.22490855


--------------------------------------------------------------------------------------------------------




 average (electrostatic) potential at core
  the test charge radii are     0.9892
  (the norm of the test charge is              1.0000)
       1 -83.2321       2 -83.2355       3 -83.2373       4 -83.2347       5 -83.2334
       6 -83.2348       7 -83.2340       8 -83.2315
 
 
 
 E-fermi :   6.0509     XC(G=0):  -9.1362     alpha+bet :-11.7379


 k-point   1 :       0.0000    0.0000    0.0000
  band No.  band energies     occupation 
      1      -5.9519      2.00000
      2      -1.8773      2.00000
      3      -1.8704      2.00000
      4      -1.8676      2.00000
      5      -1.8658      2.00000
      6      -1.8637      2.00000
      7      -1.8536      2.00000
      8       3.0451      2.00000
      9       3.0464      2.00000
     10       3.0499      2.00000
     11       3.0504      2.00000
     12       3.0510      2.00000
     13       3.0549      2.00000
     14       5.9176      2.00000
     15       5.9209      2.00000
     16       5.9235      2.00000
     17       6.5834      0.00000
     18       6.5865      0.00000
     19       6.5892      0.00000
     20       6.5927      0.00000
     21       6.5948      0.00000
     22       6.5992      0.00000
     23       8.3773      0.00000
     24       8.3789      0.00000
     25       8.3809      0.00000
     26       9.0526      0.00000
     27      13.6116      0.00000
     28      13.6117      0.00000
     29      13.8106      0.00000
     30      15.8183      0.00000
     31      15.8246      0.00000
     32      15.8258      0.00000
     33      15.8267      0.00000
     34      15.8305      0.00000
     35      15.8347      0.00000
     36      16.9478      0.00000
     37      16.9494      0.00000
     38      16.9522      0.00000
     39      16.9737      0.00000
     40      16.9757      0.00000
     41      16.9844      0.00000
     42      16.9860      0.00000
     43      16.9883      0.00000
     44      16.9968      0.00000
     45      18.7116      0.00000
     46      18.7183      0.00000
     47      18.7285      0.00000
     48      18.7326      0.00000


--------------------------------------------------------------------------------------------------------


 soft charge-density along one line, spin component           1
         0         1         2         3         4         5         6         7         8         9
 total charge-density along one line
 
 pseudopotential strength for first ion, spin component:           1
 18.598  -0.001   0.000   0.000   0.000   0.000   0.000   0.000
 -0.001   0.006   0.000   0.000   0.000   0.000   0.000   0.000
  0.000   0.000   4.224   0.000   0.000  -0.005   0.000   0.000
  0.000   0.000   0.000   4.224   0.000   0.000  -0.005   0.000
  0.000   0.000   0.000   0.000   4.224   0.000   0.000  -0.005
  0.000   0.000  -0.005   0.000   0.000   0.005   0.000   0.000
  0.000   0.000   0.000  -0.005   0.000   0.000   0.005   0.000
  0.000   0.000   0.000   0.000  -0.005   0.000   0.000   0.005
 total augmentation occupancy for first ion, spin component:           1
  1.320  -1.086   0.002   0.001  -0.001  -0.003  -0.001   0.001
 -1.086   1.010  -0.001   0.000   0.000   0.003   0.001  -0.001
  0.002  -0.001   1.123  -0.001   0.000  -0.800   0.001  -0.001
  0.001   0.000  -0.001   1.121   0.002   0.001  -0.799  -0.002
 -0.001   0.000   0.000   0.002   1.123  -0.001  -0.002  -0.800
 -0.003   0.003  -0.800   0.001  -0.001   0.646  -0.001   0.001
 -0.001   0.001   0.001  -0.799  -0.002  -0.001   0.645   0.002
  0.001  -0.001  -0.001  -0.002  -0.800   0.001   0.002   0.646


----------------------------------------- Iteration    1(  10)  ---------------------------------------


    POTLOK:  cpu time    0.02: real time    0.02
    SETDIJ:  cpu time    0.02: real time    0.02
    EDDIAG:  cpu time    0.02: real time    0.02
  RMM-DIIS:  cpu time    0.05: real time    0.05
    ORTHCH:  cpu time    0.01: real time    0.01
       DOS:  cpu time    0.00: real time    0.00
    CHARGE:  cpu time    0.02: real time    0.02
    MIXING:  cpu time    0.00: real time    0.00
    --------------------------------------------
      LOOP:  cpu time    0.14: real time    0.15

 eigenvalue-minimisations  :   104
 total energy-change (2. order) :-0.1843282E-03  (-0.2415323E-04)
 number of electron      31.9999999 magnetization 
 augmentation part       -1.7273379 magnetization 

 Broyden mixing:
  rms(total) = 0.45881E-03    rms(broyden)= 0.45837E-03
  rms(prec ) = 0.91630E-03
  weight for this iteration     100.00

 eigenvalues of (default mixing * dielectric matrix)
  average eigenvalue GAMMA=   2.0358
  3.0922  2.6263  2.1679  0.9774  1.3154

 Free energy of the ion-electron system (eV)
  ---------------------------------------------------
  alpha Z        PSCENC =        12.68944982
  Ewald energy   TEWEN  =      -907.56730837
  -1/2 Hartree   DENC   =       -70.84760522
  -exchange  EXHF       =         0.00000000
  -V(xc)+E(xc)   XCENC  =       -72.90954143
  PAW double counting   =       307.80341739     -166.64728035
  entropy T*S    EENTRO =         0.00000000
  eigenvalues    EBANDS =        37.87979360
  atomic energy  EATOM  =       826.37398168
  ---------------------------------------------------
  free energy    TOTEN  =       -33.22509288 eV

  energy without entropy =      -33.22509288  energy(sigma->0) =      -33.22509288


--------------------------------------------------------------------------------------------------------




 average (electrostatic) potential at core
  the test charge radii are     0.9892
  (the norm of the test charge is              1.0000)
       1 -83.2241       2 -83.2266       3 -83.2278       4 -83.2260       5 -83.2250
       6 -83.2261       7 -83.2254       8 -83.2236
 
 
 
 E-fermi :   6.0554     XC(G=0):  -9.1307     alpha+bet :-11.7379


 k-point   1 :       0.0000    0.0000    0.0000
  band No.  band energies     occupation 
      1      -5.9495      2.00000
      2      -1.8751      2.00000
      3      -1.8683      2.00000
      4      -1.8656      2.00000
      5      -1.8638      2.00000
      6      -1.8617      2.00000
      7      -1.8519      2.00000
      8       3.0469      2.00000
      9       3.0481      2.00000
     10       3.0515      2.00000
     11       3.0521      2.00000
     12       3.0526      2.00000
     13       3.0565      2.00000
     14       5.9196      2.00000
     15       5.9230      2.00000
     16       5.9256      2.00000
     17       6.5886      0.00000
     18       6.5918      0.00000
     19       6.5944      0.00000
     20       6.5979      0.00000
     21       6.6000      0.00000
     22       6.6045      0.00000
     23       8.3782      0.00000
     24       8.3798      0.00000
     25       8.3818      0.00000
     26       9.0563      0.00000
     27      13.6117      0.00000
     28      13.6117      0.00000
     29      13.8265      0.00000
     30      15.8201      0.00000
     31      15.8264      0.00000
     32      15.8275      0.00000
     33      15.8284      0.00000
     34      15.8324      0.00000
     35      15.8364      0.00000
     36      16.9517      0.00000
     37      16.9534      0.00000
     38      16.9561      0.00000
     39      16.9765      0.00000
     40      16.9784      0.00000
     41      16.9870      0.00000
     42      16.9886      0.00000
     43      16.9908      0.00000
     44      16.9994      0.00000
     45      18.7190      0.00000
     46      18.7254      0.00000
     47      18.7353      0.00000
     48      18.7393      0.00000


--------------------------------------------------------------------------------------------------------


 soft charge-density along one line, spin component           1
         0         1         2         3         4         5         6         7         8         9
 total charge-density along one line
 
 pseudopotential strength for first ion, spin component:           1
 18.597  -0.001   0.000   0.000   0.000   0.000   0.000   0.000
 -0.001   0.006   0.000   0.000   0.000   0.000   0.000   0.000
  0.000   0.000   4.224   0.000   0.000  -0.005   0.000   0.000
  0.000   0.000   0.000   4.224   0.000   0.000  -0.005   0.000
  0.000   0.000   0.000   0.000   4.224   0.000   0.000  -0.005
  0.000   0.000  -0.005   0.000   0.000   0.005   0.000   0.000
  0.000   0.000   0.000  -0.005   0.000   0.000   0.005   0.000
  0.000   0.000   0.000   0.000  -0.005   0.000   0.000   0.005
 total augmentation occupancy for first ion, spin component:           1
  1.320  -1.086   0.002   0.001  -0.001  -0.003  -0.001   0.001
 -1.086   1.010  -0.001   0.000   0.000   0.003   0.000  -0.001
  0.002  -0.001   1.123  -0.001   0.000  -0.801   0.001  -0.001
  0.001   0.000  -0.001   1.121   0.002   0.001  -0.799  -0.002
 -0.001   0.000   0.000   0.002   1.123  -0.001  -0.002  -0.801
 -0.003   0.003  -0.801   0.001  -0.001   0.647  -0.001   0.001
 -0.001   0.000   0.001  -0.799  -0.002  -0.001   0.646   0.002
  0.001  -0.001  -0.001  -0.002  -0.801   0.001   0.002   0.647


----------------------------------------- Iteration    1(  11)  ---------------------------------------


    POTLOK:  cpu time    0.02: real time    0.02
    SETDIJ:  cpu time    0.02: real time    0.02
    EDDIAG:  cpu time    0.02: real time    0.02
  RMM-DIIS:  cpu time    0.03: real time    0.03
    ORTHCH:  cpu time    0.01: real time    0.01
       DOS:  cpu time    0.00: real time    0.00
    CHARGE:  cpu time    0.02: real time    0.02
    MIXING:  cpu time    0.00: real time    0.00
    --------------------------------------------
      LOOP:  cpu time    0.12: real time    0.13

 eigenvalue-minimisations  :   116
 total energy-change (2. order) : 0.4381266E-05  (-0.3242920E-06)
 number of electron      31.9999999 magnetization 
 augmentation part       -1.7274374 magnetization 

 Broyden mixing:
  rms(total) = 0.15698E-03    rms(broyden)= 0.15692E-03
  rms(prec ) = 0.30556E-03
  weight for this iteration     100.00

 eigenvalues of (default mixing * dielectric matrix)
  average eigenvalue GAMMA=   1.9677
  3.2058  2.7014  2.1531  1.7978  0.9740  0.9740

 Free energy of the ion-electron system (eV)
  ---------------------------------------------------
  alpha Z        PSCENC =        12.68944982
  Ewald energy   TEWEN  =      -907.56730837
  -1/2 Hartree   DENC   =       -70.82816521
  -exchange  EXHF       =         0.00000000
  -V(xc)+E(xc)   XCENC  =       -72.91086568
  PAW double counting   =       307.73421752     -166.57538474
  entropy T*S    EENTRO =         0.00000000
  eigenvalues    EBANDS =        37.85898649
  atomic energy  EATOM  =       826.37398168
  ---------------------------------------------------
  free energy    TOTEN  =       -33.22508850 eV

  energy without entropy =      -33.22508850  energy(sigma->0) =      -33.22508850


--------------------------------------------------------------------------------------------------------




 average (electrostatic) potential at core
  the test charge radii are     0.9892
  (the norm of the test charge is              1.0000)
       1 -83.2259       2 -83.2290       3 -83.2305       4 -83.2282       5 -83.2270
       6 -83.2284       7 -83.2275       8 -83.2253
 
 
 
 E-fermi :   6.0549     XC(G=0):  -9.1314     alpha+bet :-11.7379


 k-point   1 :       0.0000    0.0000    0.0000
  band No.  band energies     occupation 
      1      -5.9502      2.00000
      2      -1.8759      2.00000
      3      -1.8690      2.00000
      4      -1.8663      2.00000
      5      -1.8645      2.00000
      6      -1.8623      2.00000
      7      -1.8523      2.00000
      8       3.0462      2.00000
      9       3.0474      2.00000
     10       3.0510      2.00000
     11       3.0515      2.00000
     12       3.0521      2.00000
     13       3.0560      2.00000
     14       5.9189      2.00000
     15       5.9222      2.00000
     16       5.9248      2.00000
     17       6.5880      0.00000
     18       6.5911      0.00000
     19       6.5937      0.00000
     20       6.5972      0.00000
     21       6.5994      0.00000
     22       6.6038      0.00000
     23       8.3778      0.00000
     24       8.3793      0.00000
     25       8.3814      0.00000
     26       9.0553      0.00000
     27      13.6114      0.00000
     28      13.6115      0.00000
     29      13.8249      0.00000
     30      15.8194      0.00000
     31      15.8257      0.00000
     32      15.8269      0.00000
     33      15.8277      0.00000
     34      15.8317      0.00000
     35      15.8358      0.00000
     36      16.9512      0.00000
     37      16.9529      0.00000
     38      16.9557      0.00000
     39      16.9758      0.00000
     40      16.9777      0.00000
     41      16.9864      0.00000
     42      16.9880      0.00000
     43      16.9902      0.00000
     44      16.9988      0.00000
     45      18.7199      0.00000
     46      18.7261      0.00000
     47      18.7350      0.00000
     48      18.7388      0.00000


--------------------------------------------------------------------------------------------------------


 soft charge-density along one line, spin component           1
         0         1         2         3         4         5         6         7         8         9
 total charge-density along one line
 
 pseudopotential strength for first ion, spin component:           1
 18.597  -0.001   0.000   0.000   0.000   0.000   0.000   0.000
 -0.001   0.006   0.000   0.000   0.000   0.000   0.000   0.000
  0.000   0.000   4.224   0.000   0.000  -0.005   0.000   0.000
  0.000   0.000   0.000   4.224   0.000   0.000  -0.005   0.000
  0.000   0.000   0.000   0.000   4.224   0.000   0.000  -0.005
  0.000   0.000  -0.005   0.000   0.000   0.005   0.000   0.000
  0.000   0.000   0.000  -0.005   0.000   0.000   0.005   0.000
  0.000   0.000   0.000   0.000  -0.005   0.000   0.000   0.005
 total augmentation occupancy for first ion, spin component:           1
  1.320  -1.085   0.002   0.001  -0.001  -0.003  -0.001   0.001
 -1.085   1.009  -0.001   0.000   0.000   0.003   0.001  -0.001
  0.002  -0.001   1.123  -0.001   0.000  -0.801   0.001  -0.001
  0.001   0.000  -0.001   1.121   0.002   0.001  -0.799  -0.002
 -0.001   0.000   0.000   0.002   1.123  -0.001  -0.002  -0.801
 -0.003   0.003  -0.801   0.001  -0.001   0.647  -0.001   0.001
 -0.001   0.001   0.001  -0.799  -0.002  -0.001   0.646   0.002
  0.001  -0.001  -0.001  -0.002  -0.801   0.001   0.002   0.647


----------------------------------------- Iteration    1(  12)  ---------------------------------------


    POTLOK:  cpu time    0.02: real time    0.02
    SETDIJ:  cpu time    0.02: real time    0.02
    EDDIAG:  cpu time    0.02: real time    0.02
  RMM-DIIS:  cpu time    0.02: real time    0.02
    ORTHCH:  cpu time    0.01: real time    0.01
       DOS:  cpu time    0.00: real time    0.00
    CHARGE:  cpu time    0.02: real time    0.02
    MIXING:  cpu time    0.00: real time    0.00
    --------------------------------------------
      LOOP:  cpu time    0.12: real time    0.12

 eigenvalue-minimisations  :   127
 total energy-change (2. order) :-0.6198422E-06  (-0.5187911E-07)
 number of electron      31.9999999 magnetization 
 augmentation part       -1.7274257 magnetization 

 Broyden mixing:
  rms(total) = 0.59052E-04    rms(broyden)= 0.59018E-04
  rms(prec ) = 0.84233E-04
  weight for this iteration     100.00

 eigenvalues of (default mixing * dielectric matrix)
  average eigenvalue GAMMA=   2.0005
  3.2086  2.7406  2.4798  2.0743  1.5432  0.9954  0.9617

 Free energy of the ion-electron system (eV)
  ---------------------------------------------------
  alpha Z        PSCENC =        12.68944982
  Ewald energy   TEWEN  =      -907.56730837
  -1/2 Hartree   DENC   =       -70.83237070
  -exchange  EXHF       =         0.00000000
  -V(xc)+E(xc)   XCENC  =       -72.91080522
  PAW double counting   =       307.74114875     -166.58249398
  entropy T*S    EENTRO =         0.00000000
  eigenvalues    EBANDS =        37.86330889
  atomic energy  EATOM  =       826.37398168
  ---------------------------------------------------
  free energy    TOTEN  =       -33.22508912 eV

  energy without entropy =      -33.22508912  energy(sigma->0) =      -33.22508912


--------------------------------------------------------------------------------------------------------




 average (electrostatic) potential at core
  the test charge radii are     0.9892
  (the norm of the test charge is              1.0000)
       1 -83.2253       2 -83.2285       3 -83.2301       4 -83.2278       5 -83.2265
       6 -83.2279       7 -83.2270       8 -83.2248
 
 
 
 E-fermi :   6.0553     XC(G=0):  -9.1311     alpha+bet :-11.7379


 k-point   1 :       0.0000    0.0000    0.0000
  band No.  band energies     occupation 
      1      -5.9500      2.00000
      2      -1.8758      2.00000
      3      -1.8689      2.00000
      4      -1.8662      2.00000
      5      -1.8643      2.00000
      6      -1.8622      2.00000
      7      -1.8522      2.00000
      8       3.0463      2.00000
      9       3.0475      2.00000
     10       3.0511      2.00000
     11       3.0516      2.00000
     12       3.0522      2.00000
[...]
    LRDIIS:  cpu time    0.02: real time    0.02
    LRDIAG:  cpu time    0.01: real time    0.01
    MIXING:  cpu time    0.00: real time    0.00
    --------------------------------------------
      LOOP:  cpu time    0.16: real time    0.16

 Broyden mixing:
  rms(total) = 0.13570E-01    rms(broyden)= 0.13568E-01
  rms(prec ) = 0.23528E-01
  weight for this iteration     100.00

 eigenvalues of (default mixing * dielectric matrix)
  average eigenvalue GAMMA=   1.9148
  2.5442  1.3201  1.8802

 Free energy of the ion-electron system (eV)
  ---------------------------------------------------
  -1/2 Hartree   DENC   =        -4.57436434
  -V(xc)+E(xc)   XCENC  =         0.93549850
  PAW double counting   =         3.10410952       -3.15348723
  entropy T*S    EENTRO =         0.00000000
  eigenvalues    EBANDS =       -24.49143672
  ---------------------------------------------------
  free energy    TOTEN  =       -28.17968026 eV

  energy without entropy =      -28.17968026


----------------------------------------- Iteration    3(   6)  ---------------------------------------


   POT+DIJ:  cpu time    0.08: real time    0.08
    HAMIL1:  cpu time    0.00: real time    0.01
    LRDIAG:  cpu time    0.01: real time    0.01
    LRDIIS:  cpu time    0.02: real time    0.02
    LRDIAG:  cpu time    0.01: real time    0.01
    MIXING:  cpu time    0.00: real time    0.00
    --------------------------------------------
      LOOP:  cpu time    0.16: real time    0.16

 Broyden mixing:
  rms(total) = 0.70896E-02    rms(broyden)= 0.70892E-02
  rms(prec ) = 0.12172E-01
  weight for this iteration     100.00

 eigenvalues of (default mixing * dielectric matrix)
  average eigenvalue GAMMA=   2.0730
  3.0324  2.4831  1.1223  1.6542

 Free energy of the ion-electron system (eV)
  ---------------------------------------------------
  -1/2 Hartree   DENC   =        -4.61389314
  -V(xc)+E(xc)   XCENC  =         0.94945539
  PAW double counting   =         3.10155190       -3.15093356
  entropy T*S    EENTRO =         0.00000000
  eigenvalues    EBANDS =       -24.52505163
  ---------------------------------------------------
  free energy    TOTEN  =       -28.23887103 eV

  energy without entropy =      -28.23887103


----------------------------------------- Iteration    3(   7)  ---------------------------------------


   POT+DIJ:  cpu time    0.08: real time    0.08
    HAMIL1:  cpu time    0.00: real time    0.00
    LRDIAG:  cpu time    0.01: real time    0.01
    LRDIIS:  cpu time    0.02: real time    0.02
    LRDIAG:  cpu time    0.01: real time    0.01
    MIXING:  cpu time    0.00: real time    0.00
    --------------------------------------------
      LOOP:  cpu time    0.15: real time    0.16

 Broyden mixing:
  rms(total) = 0.53161E-03    rms(broyden)= 0.53070E-03
  rms(prec ) = 0.99758E-03
  weight for this iteration     100.00

 eigenvalues of (default mixing * dielectric matrix)
  average eigenvalue GAMMA=   1.9683
  3.0947  2.4068  1.1152  1.6832  1.5418

 Free energy of the ion-electron system (eV)
  ---------------------------------------------------
  -1/2 Hartree   DENC   =        -4.62607941
  -V(xc)+E(xc)   XCENC  =         0.95726503
  PAW double counting   =         3.06465284       -3.11348138
  entropy T*S    EENTRO =         0.00000000
  eigenvalues    EBANDS =       -24.56151069
  ---------------------------------------------------
  free energy    TOTEN  =       -28.27915361 eV

  energy without entropy =      -28.27915361


----------------------------------------- Iteration    3(   8)  ---------------------------------------


   POT+DIJ:  cpu time    0.08: real time    0.08
    HAMIL1:  cpu time    0.00: real time    0.01
    LRDIAG:  cpu time    0.01: real time    0.01
    LRDIIS:  cpu time    0.02: real time    0.02
    LRDIAG:  cpu time    0.01: real time    0.01
    MIXING:  cpu time    0.00: real time    0.00
    --------------------------------------------
      LOOP:  cpu time    0.16: real time    0.16

 Broyden mixing:
  rms(total) = 0.27786E-03    rms(broyden)= 0.27779E-03
  rms(prec ) = 0.40872E-03
  weight for this iteration     100.00

 eigenvalues of (default mixing * dielectric matrix)
  average eigenvalue GAMMA=   1.9105
  3.0891  2.4611  2.0818  1.6623  1.1276  1.0413

 Free energy of the ion-electron system (eV)
  ---------------------------------------------------
  -1/2 Hartree   DENC   =        -4.62948145
  -V(xc)+E(xc)   XCENC  =         0.95815050
  PAW double counting   =         3.06844443       -3.11733643
  entropy T*S    EENTRO =         0.00000000
  eigenvalues    EBANDS =       -24.56246432
  ---------------------------------------------------
  free energy    TOTEN  =       -28.28268726 eV

  energy without entropy =      -28.28268726


----------------------------------------- Iteration    3(   9)  ---------------------------------------


   POT+DIJ:  cpu time    0.08: real time    0.08
    HAMIL1:  cpu time    0.01: real time    0.01
    LRDIAG:  cpu time    0.01: real time    0.01
    LRDIIS:  cpu time    0.02: real time    0.02
    LRDIAG:  cpu time    0.01: real time    0.01
    MIXING:  cpu time    0.00: real time    0.00
    --------------------------------------------
      LOOP:  cpu time    0.16: real time    0.17

 Broyden mixing:
  rms(total) = 0.10085E-03    rms(broyden)= 0.10083E-03
  rms(prec ) = 0.15368E-03
  weight for this iteration     100.00

 eigenvalues of (default mixing * dielectric matrix)
  average eigenvalue GAMMA=   1.8928
  3.1751  2.7367  2.4021  1.6742  1.2673  1.1009  0.8931

 Free energy of the ion-electron system (eV)
  ---------------------------------------------------
  -1/2 Hartree   DENC   =        -4.62919884
  -V(xc)+E(xc)   XCENC  =         0.95809267
  PAW double counting   =         3.07065518       -3.11958519
  entropy T*S    EENTRO =         0.00000000
  eigenvalues    EBANDS =       -24.56270838
  ---------------------------------------------------
  free energy    TOTEN  =       -28.28274455 eV

  energy without entropy =      -28.28274455


----------------------------------------- Iteration    3(  10)  ---------------------------------------


   POT+DIJ:  cpu time    0.08: real time    0.08
    HAMIL1:  cpu time    0.01: real time    0.01
    LRDIAG:  cpu time    0.01: real time    0.01
    LRDIIS:  cpu time    0.02: real time    0.02
    LRDIAG:  cpu time    0.01: real time    0.01
    MIXING:  cpu time    0.00: real time    0.00
    --------------------------------------------
      LOOP:  cpu time    0.16: real time    0.16

 Broyden mixing:
  rms(total) = 0.14721E-04    rms(broyden)= 0.14711E-04
  rms(prec ) = 0.23861E-04
  weight for this iteration     100.00

 eigenvalues of (default mixing * dielectric matrix)
  average eigenvalue GAMMA=   1.8323
  3.1953  2.7699  2.4452  1.6699  1.4141  0.9797  1.1176  1.0663

 Free energy of the ion-electron system (eV)
  ---------------------------------------------------
  -1/2 Hartree   DENC   =        -4.62927034
  -V(xc)+E(xc)   XCENC  =         0.95813230
  PAW double counting   =         3.07173346       -3.12068227
  entropy T*S    EENTRO =         0.00000000
  eigenvalues    EBANDS =       -24.56296396
  ---------------------------------------------------
  free energy    TOTEN  =       -28.28305081 eV

  energy without entropy =      -28.28305081


----------------------------------------- Iteration    3(  11)  ---------------------------------------


   POT+DIJ:  cpu time    0.08: real time    0.08
    HAMIL1:  cpu time    0.00: real time    0.01
    LRDIAG:  cpu time    0.01: real time    0.01
    LRDIIS:  cpu time    0.02: real time    0.02
    LRDIAG:  cpu time    0.01: real time    0.01
    MIXING:  cpu time    0.00: real time    0.00
    --------------------------------------------
      LOOP:  cpu time    0.16: real time    0.16

 Broyden mixing:
  rms(total) = 0.37901E-05    rms(broyden)= 0.37878E-05
  rms(prec ) = 0.52023E-05
  weight for this iteration     100.00

 eigenvalues of (default mixing * dielectric matrix)
  average eigenvalue GAMMA=   1.8924
  3.2033  2.7979  2.4192  2.4192  1.6707  1.4041  0.9917  1.0167  1.1090

 Free energy of the ion-electron system (eV)
  ---------------------------------------------------
  -1/2 Hartree   DENC   =        -4.62927908
  -V(xc)+E(xc)   XCENC  =         0.95812941
  PAW double counting   =         3.07182095       -3.12077126
  entropy T*S    EENTRO =         0.00000000
  eigenvalues    EBANDS =       -24.56294503
  ---------------------------------------------------
  free energy    TOTEN  =       -28.28304502 eV

  energy without entropy =      -28.28304502


----------------------------------------- Iteration    3(  12)  ---------------------------------------


   POT+DIJ:  cpu time    0.08: real time    0.08
    HAMIL1:  cpu time    0.01: real time    0.01
    LRDIAG:  cpu time    0.01: real time    0.01
    LRDIIS:  cpu time    0.02: real time    0.02
    LRDIAG:  cpu time    0.01: real time    0.01
    MIXING:  cpu time    0.00: real time    0.00
    --------------------------------------------
      LOOP:  cpu time    0.16: real time    0.16

 Broyden mixing:
  rms(total) = 0.97288E-06    rms(broyden)= 0.97249E-06
  rms(prec ) = 0.14753E-05
  weight for this iteration     100.00

 eigenvalues of (default mixing * dielectric matrix)
  average eigenvalue GAMMA=   1.8356
  3.2053  2.8125  2.5331  2.4490  1.6699  1.2835  1.2835  1.0041  1.0041  1.1111

 Free energy of the ion-electron system (eV)
  ---------------------------------------------------
  -1/2 Hartree   DENC   =        -4.62928011
  -V(xc)+E(xc)   XCENC  =         0.95812935
  PAW double counting   =         3.07173748       -3.12068634
  entropy T*S    EENTRO =         0.00000000
  eigenvalues    EBANDS =       -24.56294617
  ---------------------------------------------------
  free energy    TOTEN  =       -28.28304580 eV

  energy without entropy =      -28.28304580


------------------------ aborting loop because EDIFF is reached ----------------------------------------


 change of polarisation eV/A/(eV/A) component  3 :    -0.004    -0.034    50.527
 dielectric tensor                  component  3 :    -0.004    -0.038    56.863


--------------------------------------------------------------------------------------------------------


    FORLOC:  cpu time    0.00: real time    0.00
    FORNL :  cpu time    0.09: real time    0.09
    STRESS:  cpu time    0.30: real time    0.30
    FORCOR:  cpu time    0.02: real time    0.02
    FORLOC:  cpu time    0.00: real time    0.00
    FORNL :  cpu time    0.09: real time    0.09
    STRESS:  cpu time    0.29: real time    0.29
    FORCOR:  cpu time    0.02: real time    0.02
    FORNLD:  cpu time    0.01: real time    0.01

 PIEZOELECTRIC TENSOR FIELD DIRECTION 3  (e Angst)
 -----------------------------------------------------------------------------
    -0.00710  0.00062  0.00437           (  0.00002  0.00001  0.00008)
     0.00063  0.00367  0.00074           (  0.00001 -0.00001  0.00009)
     0.00437  0.00074  0.00147           (  0.00008  0.00009 -0.00003)

 PIEZOELECTRIC TENSOR FIELD DIRECTION 3  (C/m^2)
 -----------------------------------------------------------------------------
    -0.00069  0.00006  0.00043
     0.00006  0.00036  0.00007
     0.00043  0.00007  0.00014


      POSITION         DIRECTION 3           BORN EFFECTIVE CHARGE    (rigid.aug.   ionic)
 -----------------------------------------------------------------------------------------
      5.46781      5.46999      0.00104    -0.17293  0.01531 -5.80064 (  0.21591  4.00000)
      1.36749      1.36854      1.36336    -0.03912 -0.01642 -5.74614 (  0.21594  4.00000)
      2.73604      2.73086      5.46838     0.14573 -0.04796 -5.72032 (  0.21595  4.00000)
      4.09836      4.10088      1.36712    -0.03665  0.05366 -5.75484 (  0.21593  4.00000)
      2.73338      5.46962      2.73423     0.17417  0.05357 -5.79649 (  0.21592  4.00000)
      4.10212      1.36673      4.10242     0.03723 -0.05034 -5.77687 (  0.21593  4.00000)
      5.46923      2.73492      2.73149    -0.14728 -0.01587 -5.78708 (  0.21593  4.00000)
      1.36742      4.09899      4.10007     0.03921  0.01622 -5.82949 (  0.21591  4.00000)
 -----------------------------------------------------------------------------------------
    total drift (improves with k-points):   0.00036  0.00818-46.21188




--------------------------------------------------------------------------------------------------------


  LATTYP: Found a simple cubic cell.
 ALAT       =     5.4700000000
  
  Lattice vectors:
  
 A1 = (   5.4700000000,   0.0000000000,   0.0000000000)
 A2 = (   0.0000000000,   5.4700000000,   0.0000000000)
 A3 = (   0.0000000000,   0.0000000000,   5.4700000000)


Analysis of symmetry for initial positions (statically):
=====================================================================
 Subroutine PRICEL returns:
 Original cell was already a primitive cell.
 

 Routine SETGRP: Setting up the symmetry group for a 
 simple cubic supercell.


 Subroutine GETGRP returns: Found  1 space group operations
 (whereof  1 operations were pure point group operations)
 out of a pool of 48 trial point group operations.


The static configuration has the point symmetry C_1 .


Analysis of symmetry for dynamics (positions and initial velocities):
=====================================================================
 Subroutine PRICEL returns:
 Original cell was already a primitive cell.
 

 Routine SETGRP: Setting up the symmetry group for a 
 simple cubic supercell.


 Subroutine GETGRP returns: Found  1 space group operations
 (whereof  1 operations were pure point group operations)
 out of a pool of 48 trial point group operations.


The dynamic configuration has the point symmetry C_1 .


 MACROSCOPIC STATIC DIELECTRIC TENSOR (including local field effects in DFT)
 ------------------------------------------------------
          56.853048    -0.068610    -0.004497
          -0.068610    56.861676    -0.037636
          -0.004499    -0.037634    56.863239
 ------------------------------------------------------



--------------------------------------------------------------------------------------------------------


  LATTYP: Found a simple cubic cell.
 ALAT       =     5.4700000000
  
  Lattice vectors:
  
 A1 = (   5.4700000000,   0.0000000000,   0.0000000000)
 A2 = (   0.0000000000,   5.4700000000,   0.0000000000)
 A3 = (   0.0000000000,   0.0000000000,   5.4700000000)


Analysis of symmetry for initial positions (statically):
=====================================================================
 Subroutine PRICEL returns:
 Original cell was already a primitive cell.
 

 Routine SETGRP: Setting up the symmetry group for a 
 simple cubic supercell.


 Subroutine GETGRP returns: Found  1 space group operations
 (whereof  1 operations were pure point group operations)
 out of a pool of 48 trial point group operations.


The static configuration has the point symmetry C_1 .


Analysis of symmetry for dynamics (positions and initial velocities):
=====================================================================
 Subroutine PRICEL returns:
 Original cell was already a primitive cell.
 

 Routine SETGRP: Setting up the symmetry group for a 
 simple cubic supercell.


 Subroutine GETGRP returns: Found  1 space group operations
 (whereof  1 operations were pure point group operations)
 out of a pool of 48 trial point group operations.


The dynamic configuration has the point symmetry C_1 .
 
 KPOINTS: Automatic mesh                          

Automatic generation of k-mesh.
Space group operators:
 irot       det(A)        alpha          n_x          n_y          n_z        tau_x        tau_y        tau_z
    1     1.000000     0.000001     1.000000     0.000000     0.000000     0.000000     0.000000     0.000000
 
 Subroutine IBZKPT returns following result:
 ===========================================
 
 Found      1 irreducible k-points:
 
 Following reciprocal coordinates:
            Coordinates               Weight
  0.000000  0.000000  0.000000      1.000000
 
 Following cartesian coordinates:
            Coordinates               Weight
  0.000000  0.000000  0.000000      1.000000
 


--------------------------------------------------------------------------------------------------------




 MACROSCOPIC STATIC DIELECTRIC TENSOR (including local field effects in DFT)
 ------------------------------------------------------
          56.853048    -0.068610    -0.004497
          -0.068610    56.861676    -0.037636
          -0.004499    -0.037634    56.863239
 ------------------------------------------------------


 PIEZOELECTRIC TENSOR  for field in x, y, z        (e  Angst)
          XX          YY          ZZ          XY          YZ          ZX
  --------------------------------------------------------------------------------
  x    -0.00539    -0.00499     0.00798     0.00460    -0.00209     0.00429
  y     0.00887    -0.00121     0.00001    -0.00180     0.00489     0.00075
  z    -0.00710     0.00367     0.00147     0.00063     0.00074     0.00437

 PIEZOELECTRIC TENSOR  for field in x, y, z        (C/m^2)
          XX          YY          ZZ          XY          YZ          ZX
  --------------------------------------------------------------------------------
  x    -0.00053    -0.00049     0.00078     0.00045    -0.00020     0.00042
  y     0.00087    -0.00012     0.00000    -0.00018     0.00048     0.00007
  z    -0.00069     0.00036     0.00014     0.00006     0.00007     0.00043
 
 BORN EFFECTIVE CHARGES (in e, cummulative output)
 -------------------------------------------------
 ion    1
    1    -5.82361    -0.01176     0.10502
    2     0.03882    -5.82737    -0.00077
    3    -0.17293     0.01531    -5.80064
 ion    2
    1    -5.76204     0.16791     0.03011
    2    -0.17488    -5.74334     0.00808
    3    -0.03912    -0.01642    -5.74614
 ion    3
    1    -5.71156     0.01601    -0.12188
    2    -0.03203    -5.71178     0.08682
    3     0.14573    -0.04796    -5.72032
 ion    4
    1    -5.75862    -0.16505     0.03170
    2     0.17639    -5.77861     0.01349
    3    -0.03665     0.05366    -5.75484
 ion    5
    1    -5.77286    -0.01175    -0.10023
    2     0.03911    -5.80490    -0.08257
    3     0.17417     0.05357    -5.79649
 ion    6
    1    -5.75912    -0.06887    -0.03450
    2     0.13914    -5.75127    -0.00868
    3     0.03723    -0.05034    -5.77687
 ion    7
    1    -5.79505     0.01267     0.12264
    2    -0.03726    -5.76160    -0.00134
    3    -0.14728    -0.01587    -5.78708
 ion    8
    1    -5.82521     0.07534    -0.03214
    2    -0.13469    -5.83071    -0.00690
    3     0.03921     0.01622    -5.82949


--------------------------------------------------------------------------------------------------------


     LOOP+:  cpu time   19.14: real time   19.53
    4ORBIT:  cpu time    0.00: real time    0.00

 total amount of memory used by VASP on root node    32224. kBytes
========================================================================

   base      :      30000. kBytes
   nonl-proj :        202. kBytes
   fftplans  :        782. kBytes
   grid      :       1198. kBytes
   one-center:         24. kBytes
   wavefun   :         18. kBytes
 
  
  
 General timing and accounting informations for this job:
 ========================================================
  
                  Total CPU time used (sec):       19.946
                            User time (sec):       15.934
                          System time (sec):        4.012
                         Elapsed time (sec):       21.820
  
                   Maximum memory used (kb):       56736.
                   Average memory used (kb):           0.
  
                          Minor page faults:       194184
                          Major page faults:            0
                 Voluntary context switches:         1387
