 vasp.5.3.3 18Dez12 (build Jan  9 2014 12:00:49) complex                        
  
 executed on             LinuxIFC date 2014.01.29  10:07:01
 running on   48 total cores
 distrk:  each k-point on   48 cores,    1 groups
 distr:  one band on NCORES_PER_BAND=   1 cores,   48 groups


--------------------------------------------------------------------------------------------------------


 INCAR:
 POTCAR:    PAW Si                                

 ----------------------------------------------------------------------------- 
|                                                                             |
|           W    W    AA    RRRRR   N    N  II  N    N   GGGG   !!!           |
|           W    W   A  A   R    R  NN   N  II  NN   N  G    G  !!!           |
|           W    W  A    A  R    R  N N  N  II  N N  N  G       !!!           |
|           W WW W  AAAAAA  RRRRR   N  N N  II  N  N N  G  GGG   !            |
|           WW  WW  A    A  R   R   N   NN  II  N   NN  G    G                |
|           W    W  A    A  R    R  N    N  II  N    N   GGGG   !!!           |
|                                                                             |
|      For optimal performance we recommend that you set                      |
|        NPAR = 4 - approx SQRT( number of cores)                             |
|      (number of cores/NPAR must be integer)                                 |
|      This setting will greatly improve the performance of VASP for DFT.     |
|      The default NPAR=number of cores might be grossly inefficient          |
|      on modern multi-core architectures or massively parallel machines.     |
|      Do your own testing.                                                   |
|      Unfortunately you need to use the default for hybrid, GW and RPA       |
|      calculations.                                                          |
|                                                                             |
 ----------------------------------------------------------------------------- 

 POTCAR:    PAW Si                                
   VRHFIN =Si: s2p2                                                             
   LEXCH  = 91                                                                  
   EATOM  =   103.3076 eV,    7.5929 Ry                                         
                                                                                
   TITEL  = PAW Si                                                              
   LULTRA =        F    use ultrasoft PP ?                                      
   IUNSCR =        1    unscreen: 0-lin 1-nonlin 2-no                           
   RPACOR =    1.500    partial core radius                                     
   POMASS =   28.085; ZVAL   =    4.000    mass and valenz                      
   RCORE  =    1.900    outmost cutoff radius                                   
   RWIGS  =    2.480; RWIGS  =    1.312    wigner-seitz radius (au A)           
   ENMAX  =  245.435; ENMIN  =  184.076 eV                                      
   ICORE  =        2    local potential                                         
   LCOR   =        T    correct aug charges                                     
   LPAW   =        T    paw PP                                                  
   EAUG   =  322.069                                                            
   DEXC   =    -.001                                                            
   RMAX   =    2.943    core radius for proj-oper                               
   RAUG   =    1.300    factor for augmentation sphere                          
   RDEP   =    1.993    core radius for depl-charge                             
   QCUT   =   -4.247; QGAM   =    8.494    optimization parameters              
                                                                                
   Description                                                                  
     l     E      TYP  RCUT    TYP  RCUT                                        
     0   .000     23  1.900                                                     
     0   .000     23  1.900                                                     
     1   .000     23  1.900                                                     
     1   .000     23  1.900                                                     
     2   .000      7  1.900                                                     
  local pseudopotential read in
  partial core-charges read in
  atomic valenz-charges read in
  non local Contribution for L=           0  read in
    real space projection operators read in
  non local Contribution for L=           0  read in
    real space projection operators read in
  non local Contribution for L=           1  read in
    real space projection operators read in
  non local Contribution for L=           1  read in
    real space projection operators read in
    PAW grid and wavefunctions read in
 
   number of l-projection  operators is LMAX  =           4
   number of lm-projection operators is LMMAX =           8
 
  PAW Si                                :
 energy of atom  1       EATOM= -103.3076
 kinetic energy error for atom=    0.0109 (will be added to EATOM!!)
 
 
 POSCAR: OUTCAR.0016.-1.out 1.0e-02              
  positions in cartesian coordinates
  No initial velocities read in
 exchange correlation table for  LEXCH =        7
   RHO(1)=    0.500       N(1)  =     2000
   RHO(2)=  100.500       N(2)  =     4000

 VTST: version 3.0c, (01/09/14)

 CHAIN: initializing optimizer
 
 OPT: Using VASP Dynamics algorithm
 CHAIN: Read ICHAIN            0
 
 POSCAR: OUTCAR.0016.-1.out 1.0e-02              
  positions in cartesian coordinates
  No initial velocities read in
 


--------------------------------------------------------------------------------------------------------


 ion  position               nearest neighbor table
   1  1.000  0.001  0.000-   6 2.37   4 2.37   2 2.37   8 2.38
   2  0.251  0.250  0.250-   5 2.36   7 2.37   3 2.37   1 2.37
   3  0.500  0.500  1.000-   4 2.37   8 2.37   6 2.37   2 2.37
   4  0.750  0.750  0.250-   7 2.36   3 2.37   1 2.37   5 2.37
   5  0.500  0.000  0.500-   2 2.36   8 2.37   6 2.37   4 2.37
   6  0.750  0.250  0.750-   1 2.37   5 2.37   3 2.37   7 2.37
   7  1.000  0.500  0.499-   4 2.36   8 2.37   2 2.37   6 2.37
   8  0.250  0.749  0.749-   7 2.37   3 2.37   5 2.37   1 2.38
 
  LATTYP: Found a simple cubic cell.
 ALAT       =     5.4700000000
  
  Lattice vectors:
  
 A1 = (   5.4700000000,   0.0000000000,   0.0000000000)
 A2 = (   0.0000000000,   5.4700000000,   0.0000000000)
 A3 = (   0.0000000000,   0.0000000000,   5.4700000000)


Analysis of symmetry for initial positions (statically):
=====================================================================
 Subroutine PRICEL returns:
 Original cell was already a primitive cell.
 

 Routine SETGRP: Setting up the symmetry group for a 
 simple cubic supercell.


 Subroutine GETGRP returns: Found  1 space group operations
 (whereof  1 operations were pure point group operations)
 out of a pool of 48 trial point group operations.


The static configuration has the point symmetry C_1 .


Analysis of symmetry for dynamics (positions and initial velocities):
=====================================================================
 Subroutine PRICEL returns:
 Original cell was already a primitive cell.
 

 Routine SETGRP: Setting up the symmetry group for a 
 simple cubic supercell.


 Subroutine GETGRP returns: Found  1 space group operations
 (whereof  1 operations were pure point group operations)
 out of a pool of 48 trial point group operations.


The dynamic configuration has the point symmetry C_1 .


 irot  :   1
 --------------------------------------------------------------------
 isymop:   1   0   0
           0   1   0
           0   0   1

 gtrans:     0.0000000     0.0000000     0.0000000

 ptrans:     0.0000000     0.0000000     0.0000000
 rotmap:
 (   1->   1)  (   2->   2)  (   3->   3)  (   4->   4)  (   5->   5) 
 (   6->   6)  (   7->   7)  (   8->   8) 
 
 
 KPOINTS: Automatic mesh                          

Automatic generation of k-mesh.
Space group operators:
 irot       det(A)        alpha          n_x          n_y          n_z        tau_x        tau_y        tau_z
    1     1.000000     0.000001     1.000000     0.000000     0.000000     0.000000     0.000000     0.000000
 
 Subroutine IBZKPT returns following result:
 ===========================================
 
 Found      1 irreducible k-points:
 
 Following reciprocal coordinates:
            Coordinates               Weight
  0.000000  0.000000  0.000000      1.000000
 
 Following cartesian coordinates:
            Coordinates               Weight
  0.000000  0.000000  0.000000      1.000000
 
 
 Subroutine IBZKPT_HF returns following result:
 ==============================================
 
 Found      1 k-points in 1st BZ
 the following      1 k-points will be used (e.g. in the exchange kernel)
 Following reciprocal coordinates:   # in IRBZ
  0.000000  0.000000  0.000000       1 t-inv F


--------------------------------------------------------------------------------------------------------




 Dimension of arrays:
   k-points           NKPTS =      1   k-points in BZ     NKDIM =      1   number of bands    NBANDS=     48
   number of dos      NEDOS =    301   number of ions     NIONS =      8
   non local maximal  LDIM  =      4   non local SUM 2l+1 LMDIM =      8
   total plane-waves  NPLWV =  21952
   max r-space proj   IRMAX =      1   max aug-charges    IRDMAX=  36071
   dimension x,y,z NGX =    28 NGY =   28 NGZ =   28
   dimension x,y,z NGXF=    56 NGYF=   56 NGZF=   56
   support grid    NGXF=   112 NGYF=  112 NGZF=  112
   ions per type =               8
 NGX,Y,Z   is equivalent  to a cutoff of   8.51,  8.51,  8.51 a.u.
 NGXF,Y,Z  is equivalent  to a cutoff of  17.02, 17.02, 17.02 a.u.


 I would recommend the setting:
   dimension x,y,z NGX =    19 NGY =   19 NGZ =   19
 SYSTEM =  NAPTHA04                                
 POSCAR =  OUTCAR.0016.-1.out 1.0e-02              

 Startparameter for this run:
   NWRITE =      3    write-flag & timer
   PREC   = normal    normal or accurate (medium, high low for compatibility)
   ISTART =      0    job   : 0-new  1-cont  2-samecut
   ICHARG =      2    charge: 1-file 2-atom 10-const
   ISPIN  =      1    spin polarized calculation?
   LNONCOLLINEAR =      F non collinear calculations
   LSORBIT =      F    spin-orbit coupling
   INIWAV =      1    electr: 0-lowe 1-rand  2-diag
   LASPH  =      F    aspherical Exc in radial PAW
   METAGGA=      F    non-selfconsistent MetaGGA calc.

 Electronic Relaxation 1
   ENCUT  =  200.0 eV  14.70 Ry    3.83 a.u.   6.31  6.31  6.31*2*pi/ulx,y,z
   ENINI  =  200.0     initial cutoff
   ENAUG  =  322.1 eV  augmentation charge cutoff
   NELM   =     60;   NELMIN=  2; NELMDL= -5     # of ELM steps 
   EDIFF  = 0.1E-07   stopping-criterion for ELM
   LREAL  =      F    real-space projection
   NLSPLINE    = F    spline interpolate recip. space projectors
   LCOMPAT=      F    compatible to vasp.4.4
   GGA_COMPAT  = T    GGA compatible to vasp.4.4-vasp.4.6
   LMAXPAW     = -100 max onsite density
   LMAXMIX     =    2 max onsite mixed and CHGCAR
   VOSKOWN=      0    Vosko Wilk Nusair interpolation
   ROPT   =    0.00000
 Ionic relaxation
   EDIFFG = 0.1E-06   stopping-criterion for IOM
   NSW    =      0    number of steps for IOM
   NBLOCK =      1;   KBLOCK =      1    inner block; outer block 
   IBRION =     -1    ionic relax: 0-MD 1-quasi-New 2-CG
   NFREE  =      0    steps in history (QN), initial steepest desc. (CG)
   ISIF   =      2    stress and relaxation
   IWAVPR =     10    prediction:  0-non 1-charg 2-wave 3-comb
   ISYM   =      2    0-nonsym 1-usesym 2-fastsym
   LCORR  =      T    Harris-Foulkes like correction to forces

   POTIM  = 0.5000    time-step for ionic-motion
   TEIN   =    0.0    initial temperature
   TEBEG  =    0.0;   TEEND  =   0.0 temperature during run
   SMASS  =  -3.00    Nose mass-parameter (am)
   estimated Nose-frequenzy (Omega)   =  0.10E-29 period in steps =****** mass=  -0.684E-27a.u.
   SCALEE = 1.0000    scale energy and forces
   NPACO  =    256;   APACO  = 16.0  distance and # of slots for P.C.
   PSTRESS=    0.0 pullay stress

  Mass of Ions in am
   POMASS =  28.09
  Ionic Valenz
   ZVAL   =   4.00
  Atomic Wigner-Seitz radii
   RWIGS  =  -1.00
  virtual crystal weights 
   VCA    =   1.00
   NELECT =      32.0000    total number of electrons
   NUPDOWN=      -1.0000    fix difference up-down

 DOS related values:
   EMIN   =  10.00;   EMAX   =-10.00  energy-range for DOS
   EFERMI =   0.00
   ISMEAR =     0;   SIGMA  =   0.02  broadening in eV -4-tet -1-fermi 0-gaus

 Electronic relaxation 2 (details)
   IALGO  =     68    algorithm
   LDIAG  =      T    sub-space diagonalisation (order eigenvalues)
   LSUBROT=      T    optimize rotation matrix (better conditioning)
   TURBO    =      0    0=normal 1=particle mesh
   IRESTART =      0    0=no restart 2=restart with 2 vectors
   NREBOOT  =      0    no. of reboots
   NMIN     =      0    reboot dimension
   EREF     =   0.00    reference energy to select bands
   IMIX   =      4    mixing-type and parameters
     AMIX     =   0.40;   BMIX     =  1.00
     AMIX_MAG =   1.60;   BMIX_MAG =  1.00
     AMIN     =   0.10
     WC   =   100.;   INIMIX=   1;  MIXPRE=   1;  MAXMIX= -45

 Intra band minimization:
   WEIMIN = 0.0000     energy-eigenvalue tresh-hold
   EBREAK =  0.52E-10  absolut break condition
   DEPER  =   0.30     relativ break condition  

   TIME   =   0.40     timestep for ELM

  volume/ion in A,a.u.               =      20.46       138.06
  Fermi-wavevector in a.u.,A,eV,Ry     =   0.950176  1.795573 12.283814  0.902835
  Thomas-Fermi vector in A             =   2.078528
 
 Write flags
   LWAVE  =      F    write WAVECAR
   LCHARG =      F    write CHGCAR
   LVTOT  =      F    write LOCPOT, total local potential
   LVHAR  =      F    write LOCPOT, Hartree potential only
   LELF   =      F    write electronic localiz. function (ELF)
   LORBIT =      0    0 simple, 1 ext, 2 COOP (PROOUT)


 Dipole corrections
   LMONO  =      F    monopole corrections only (constant potential shift)
   LDIPOL =      F    correct potential (dipole corrections)
   IDIPOL =      0    1-x, 2-y, 3-z, 4-all directions 
   EPSILON=  1.0000000 bulk dielectric constant

 Exchange correlation treatment:
   GGA     =    --    GGA type
   LEXCH   =     7    internal setting for exchange type
   VOSKOWN=      0    Vosko Wilk Nusair interpolation
   LHFCALC =     F    Hartree Fock is set to
   LHFONE  =     F    Hartree Fock one center treatment
   AEXX    =    0.0000 exact exchange contribution

 Linear response parameters
   LEPSILON=     T    determine dielectric tensor
   LRPA    =     F    only Hartree local field effects (RPA)
   LNABLA  =     F    use nabla operator in PAW spheres
   LVEL    =     F    velocity operator in full k-point grid
   LINTERFAST=   F  fast interpolation
   KINTER  =     0    interpolate to denser k-point grid
   CSHIFT  =0.1000    complex shift for real part using Kramers Kronig
   OMEGAMAX=  -1.0    maximum frequency
   DEG_THRESHOLD= 0.2000000E-02 threshold for treating states as degnerate
   RTIME   =    0.100 relaxation time in fs

 Orbital magnetization related:
   ORBITALMAG=     F  switch on orbital magnetization
   LCHIMAG   =     F  perturbation theory with respect to B field
   DQ        =  0.001000  dq finite difference perturbation B field



--------------------------------------------------------------------------------------------------------


 Static calculation
 charge density and potential will be updated during run
 non-spin polarized calculation
 RMM-DIIS sequential band-by-band and
  variant of blocked Davidson during initial phase
 perform sub-space diagonalisation
    before iterative eigenvector-optimisation
 modified Broyden-mixing scheme, WC =      100.0
 initial mixing is a Kerker type mixing with AMIX =  0.4000 and BMIX =      1.0000
 Hartree-type preconditioning will be used
 using additional bands           32
 reciprocal scheme for non local part
 use partial core corrections
 calculate Harris-corrections to forces 
   (improved forces if not selfconsistent)
 use gradient corrections 
 use of overlap-Matrix (Vanderbilt PP)
 Gauss-broadening in eV      SIGMA  =   0.02


--------------------------------------------------------------------------------------------------------


  energy-cutoff  :      200.00
  volume of cell :      163.67
      direct lattice vectors                 reciprocal lattice vectors
     5.470000000  0.000000000  0.000000000     0.182815356  0.000000000  0.000000000
     0.000000000  5.470000000  0.000000000     0.000000000  0.182815356  0.000000000
     0.000000000  0.000000000  5.470000000     0.000000000  0.000000000  0.182815356

  length of vectors
     5.470000000  5.470000000  5.470000000     0.182815356  0.182815356  0.182815356


 
 k-points in units of 2pi/SCALE and weight: Automatic mesh                          
   0.00000000  0.00000000  0.00000000       1.000
 
 k-points in reciprocal lattice and weights: Automatic mesh                          
   0.00000000  0.00000000  0.00000000       1.000
 
 position of ions in fractional coordinates (direct lattice) 
   0.99956787  0.00066299  0.00028311
   0.25066299  0.25028311  0.25035046
   0.50028311  0.50035046  0.99983097
   0.75035046  0.74983097  0.25014998
   0.49983097  0.00014998  0.49985768
   0.75014998  0.24985768  0.74998559
   0.99985768  0.49998559  0.49935256
   0.24998559  0.74935256  0.74921615
 
 position of ions in cartesian coordinates  (Angst):
   5.46763624  0.00362657  0.00154861
   1.37112657  1.36904861  1.36941704
   2.73654861  2.73691704  5.46907540
   4.10441704  4.10157540  1.36832038
   2.73407540  0.00082038  2.73422148
   4.10332038  1.36672148  4.10242117
   5.46922148  2.73492117  2.73145851
   1.36742117  4.09895851  4.09821234
 


--------------------------------------------------------------------------------------------------------


 k-point  1 :   0.0000 0.0000 0.0000  plane waves:    1021

 maximum and minimum number of plane-waves per node :      1021     1021

 maximum number of plane-waves:      1021
 maximum index in each direction: 
   IXMAX=    6   IYMAX=    6   IZMAX=    6
   IXMIN=   -6   IYMIN=   -6   IZMIN=   -6

 NGX is ok and might be reduce to  26
 NGY is ok and might be reduce to  26
 NGZ is ok and might be reduce to  26

 serial   3D FFT for wavefunctions
 parallel 3D FFT for charge:
    minimum data exchange during FFTs selected (reduces bandwidth)


 total amount of memory used by VASP on root node    32224. kBytes
========================================================================

   base      :      30000. kBytes
   nonl-proj :        202. kBytes
   fftplans  :        782. kBytes
   grid      :       1198. kBytes
   one-center:         24. kBytes
   wavefun   :         18. kBytes
 
 Broyden mixing: mesh for mixing (old mesh)
   NGX = 13   NGY = 13   NGZ = 13
  (NGX  = 56   NGY  = 56   NGZ  = 56)
  gives a total of   2197 points

 initial charge density was supplied:
 charge density of overlapping atoms calculated
 number of electron      32.0000000 magnetization 
 keeping initial charge density in first step


--------------------------------------------------------------------------------------------------------


 Maximum index for augmentation-charges         1787 (set IRDMAX)


--------------------------------------------------------------------------------------------------------


 First call to EWALD:  gamma=   0.324
 Maximum number of real-space cells 3x 3x 3
 Maximum number of reciprocal cells 3x 3x 3

 FEWALD executed in parallel
    FEWALD:  cpu time    0.00: real time    0.00


----------------------------------------- Iteration    1(   1)  ---------------------------------------


    POTLOK:  cpu time    0.04: real time    0.04
    SETDIJ:  cpu time    0.02: real time    0.02
     EDDAV:  cpu time    0.42: real time    0.42
       DOS:  cpu time    0.01: real time    0.01
    --------------------------------------------
      LOOP:  cpu time    0.49: real time    0.50

 eigenvalue-minimisations  :    96
 total energy-change (2. order) :-0.1014711E+02  (-0.7956176E+03)
 number of electron      32.0000000 magnetization 
 augmentation part       32.0000000 magnetization 

 Free energy of the ion-electron system (eV)
  ---------------------------------------------------
  alpha Z        PSCENC =        12.68944982
  Ewald energy   TEWEN  =      -907.56645851
  -1/2 Hartree   DENC   =       -45.63649030
  -exchange  EXHF       =         0.00000000
  -V(xc)+E(xc)   XCENC  =       -76.79671311
  PAW double counting   =       265.93453375     -123.69690146
  entropy T*S    EENTRO =        -0.00025622
  eigenvalues    EBANDS =        38.55174110
  atomic energy  EATOM  =       826.37398168
  ---------------------------------------------------
  free energy    TOTEN  =       -10.14711324 eV

  energy without entropy =      -10.14685703  energy(sigma->0) =      -10.14698514


--------------------------------------------------------------------------------------------------------




 average (electrostatic) potential at core
  the test charge radii are     0.9892
  (the norm of the test charge is              1.0000)
       1 -84.3446       2 -84.3524       3 -84.3501       4 -84.3534       5 -84.3519
       6 -84.3513       7 -84.3560       8 -84.3455
 
 
 
 E-fermi :   6.6078     XC(G=0):  -9.5533     alpha+bet :-11.7379


 k-point   1 :       0.0000    0.0000    0.0000
  band No.  band energies     occupation 
      1      -6.5895      2.00000
      2      -2.4078      2.00000
      3      -2.2504      2.00000
      4      -2.1282      2.00000
      5      -2.0321      2.00000
      6      -1.8718      2.00000
      7      -1.6765      2.00000
      8       2.7428      2.00000
      9       2.8501      2.00000
     10       2.9918      2.00000
     11       3.1621      2.00000
     12       3.3472      2.00000
     13       4.0778      2.00000
     14       6.1317      2.00000
     15       6.3632      2.00000
     16       6.5654      1.99724
     17       6.6501      0.00276
     18       6.8023      0.00000
     19       6.9073      0.00000
     20       7.1742      0.00000
     21       7.3825      0.00000
     22       8.0489      0.00000
     23       8.9850      0.00000
     24       9.3739      0.00000
     25      10.4558      0.00000
     26      11.4521      0.00000
     27      13.5066      0.00000
     28      14.7729      0.00000
     29      16.5551      0.00000
     30      16.8982      0.00000
     31      17.3561      0.00000
     32      17.5904      0.00000
     33      17.9334      0.00000
     34      18.1285      0.00000
     35      18.4968      0.00000
     36      18.8885      0.00000
     37      19.3611      0.00000
     38      19.5143      0.00000
     39      19.8670      0.00000
     40      20.2516      0.00000
     41      21.0949      0.00000
     42      21.6782      0.00000
     43      22.1845      0.00000
     44      22.7553      0.00000
     45      23.8931      0.00000
     46      24.4098      0.00000
     47      24.8247      0.00000
     48      25.8406      0.00000


--------------------------------------------------------------------------------------------------------


 soft charge-density along one line, spin component           1
         0         1         2         3         4         5         6         7         8         9
 total charge-density along one line
 
 pseudopotential strength for first ion, spin component:           1
 18.661   0.000   0.000   0.000   0.000   0.000   0.000   0.000
  0.000   0.006   0.000   0.000   0.000   0.000   0.000   0.000
  0.000   0.000   4.216   0.000   0.000  -0.004   0.000   0.000
  0.000   0.000   0.000   4.216   0.000   0.000  -0.004   0.000
  0.000   0.000   0.000   0.000   4.216   0.000   0.000  -0.004
  0.000   0.000  -0.004   0.000   0.000   0.005   0.000   0.000
  0.000   0.000   0.000  -0.004   0.000   0.000   0.005   0.000
  0.000   0.000   0.000   0.000  -0.004   0.000   0.000   0.005
 total augmentation occupancy for first ion, spin component:           1
  2.000   0.000   0.000   0.000   0.000   0.000   0.000   0.000
  0.000   0.000   0.000   0.000   0.000   0.000   0.000   0.000
  0.000   0.000   0.667   0.000   0.000   0.000   0.000   0.000
  0.000   0.000   0.000   0.667   0.000   0.000   0.000   0.000
  0.000   0.000   0.000   0.000   0.667   0.000   0.000   0.000
  0.000   0.000   0.000   0.000   0.000   0.000   0.000   0.000
  0.000   0.000   0.000   0.000   0.000   0.000   0.000   0.000
  0.000   0.000   0.000   0.000   0.000   0.000   0.000   0.000


----------------------------------------- Iteration    1(   2)  ---------------------------------------


     EDDAV:  cpu time    0.98: real time    0.98
       DOS:  cpu time    0.00: real time    0.00
    --------------------------------------------
      LOOP:  cpu time    0.99: real time    1.00

 eigenvalue-minimisations  :   144
 total energy-change (2. order) :-0.2430300E+02  (-0.2430037E+02)
 number of electron      32.0000000 magnetization 
 augmentation part       32.0000000 magnetization 

 Free energy of the ion-electron system (eV)
  ---------------------------------------------------
  alpha Z        PSCENC =        12.68944982
  Ewald energy   TEWEN  =      -907.56645851
  -1/2 Hartree   DENC   =       -45.63649030
  -exchange  EXHF       =         0.00000000
  -V(xc)+E(xc)   XCENC  =       -76.79671311
  PAW double counting   =       265.93453375     -123.69690146
  entropy T*S    EENTRO =         0.00000000
  eigenvalues    EBANDS =        14.24848954
  atomic energy  EATOM  =       826.37398168
  ---------------------------------------------------
  free energy    TOTEN  =       -34.45010859 eV

  energy without entropy =      -34.45010859  energy(sigma->0) =      -34.45010859


--------------------------------------------------------------------------------------------------------




 average (electrostatic) potential at core
  the test charge radii are     0.9892
  (the norm of the test charge is              1.0000)
       1 -84.3446       2 -84.3524       3 -84.3501       4 -84.3534       5 -84.3519
       6 -84.3513       7 -84.3560       8 -84.3455
 
 
 
 E-fermi :   5.2555     XC(G=0):  -9.5533     alpha+bet :-11.7379


 k-point   1 :       0.0000    0.0000    0.0000
  band No.  band energies     occupation 
      1      -6.6372      2.00000
      2      -2.6439      2.00000
      3      -2.6402      2.00000
      4      -2.6306      2.00000
      5      -2.6278      2.00000
      6      -2.6258      2.00000
      7      -2.6068      2.00000
      8       2.3739      2.00000
      9       2.3770      2.00000
     10       2.3780      2.00000
     11       2.3837      2.00000
     12       2.3873      2.00000
     13       2.3963      2.00000
     14       5.0553      2.00000
     15       5.0863      2.00000
     16       5.0987      2.00000
     17       6.1424      0.00000
     18       6.1493      0.00000
     19       6.1550      0.00000
     20       6.1585      0.00000
     21       6.1641      0.00000
     22       6.1704      0.00000
     23       7.8471      0.00000
     24       7.8565      0.00000
     25       7.8680      0.00000
     26       8.1266      0.00000
     27      13.2004      0.00000
     28      13.2629      0.00000
     29      13.2699      0.00000
     30      15.0930      0.00000
     31      15.1368      0.00000
     32      15.1729      0.00000
     33      15.2513      0.00000
     34      15.3132      0.00000
     35      15.6341      0.00000
     36      16.3923      0.00000
     37      16.4183      0.00000
     38      16.4472      0.00000
     39      16.5367      0.00000
     40      16.7155      0.00000
     41      16.7512      0.00000
     42      16.7699      0.00000
     43      16.8675      0.00000
     44      17.2244      0.00000
     45      17.9121      0.00000
     46      17.9498      0.00000
     47      17.9886      0.00000
     48      18.0301      0.00000


--------------------------------------------------------------------------------------------------------


 soft charge-density along one line, spin component           1
         0         1         2         3         4         5         6         7         8         9
 total charge-density along one line
 
 pseudopotential strength for first ion, spin component:           1
 18.661   0.000   0.000   0.000   0.000   0.000   0.000   0.000
  0.000   0.006   0.000   0.000   0.000   0.000   0.000   0.000
  0.000   0.000   4.216   0.000   0.000  -0.004   0.000   0.000
  0.000   0.000   0.000   4.216   0.000   0.000  -0.004   0.000
  0.000   0.000   0.000   0.000   4.216   0.000   0.000  -0.004
  0.000   0.000  -0.004   0.000   0.000   0.005   0.000   0.000
  0.000   0.000   0.000  -0.004   0.000   0.000   0.005   0.000
  0.000   0.000   0.000   0.000  -0.004   0.000   0.000   0.005
 total augmentation occupancy for first ion, spin component:           1
  2.000   0.000   0.000   0.000   0.000   0.000   0.000   0.000
  0.000   0.000   0.000   0.000   0.000   0.000   0.000   0.000
  0.000   0.000   0.667   0.000   0.000   0.000   0.000   0.000
  0.000   0.000   0.000   0.667   0.000   0.000   0.000   0.000
  0.000   0.000   0.000   0.000   0.667   0.000   0.000   0.000
  0.000   0.000   0.000   0.000   0.000   0.000   0.000   0.000
  0.000   0.000   0.000   0.000   0.000   0.000   0.000   0.000
  0.000   0.000   0.000   0.000   0.000   0.000   0.000   0.000


----------------------------------------- Iteration    1(   3)  ---------------------------------------


     EDDAV:  cpu time    0.40: real time    0.40
       DOS:  cpu time    0.00: real time    0.00
    --------------------------------------------
      LOOP:  cpu time    0.40: real time    0.40

 eigenvalue-minimisations  :    96
 total energy-change (2. order) :-0.1672893E+00  (-0.1672893E+00)
 number of electron      32.0000000 magnetization 
 augmentation part       32.0000000 magnetization 

 Free energy of the ion-electron system (eV)
  ---------------------------------------------------
  alpha Z        PSCENC =        12.68944982
  Ewald energy   TEWEN  =      -907.56645851
  -1/2 Hartree   DENC   =       -45.63649030
  -exchange  EXHF       =         0.00000000
  -V(xc)+E(xc)   XCENC  =       -76.79671311
  PAW double counting   =       265.93453375     -123.69690146
  entropy T*S    EENTRO =         0.00000000
  eigenvalues    EBANDS =        14.08120023
  atomic energy  EATOM  =       826.37398168
  ---------------------------------------------------
  free energy    TOTEN  =       -34.61739789 eV

  energy without entropy =      -34.61739789  energy(sigma->0) =      -34.61739789


--------------------------------------------------------------------------------------------------------




 average (electrostatic) potential at core
  the test charge radii are     0.9892
  (the norm of the test charge is              1.0000)
       1 -84.3446       2 -84.3524       3 -84.3501       4 -84.3534       5 -84.3519
       6 -84.3513       7 -84.3560       8 -84.3455
 
 
 
 E-fermi :   5.2259     XC(G=0):  -9.5533     alpha+bet :-11.7379


 k-point   1 :       0.0000    0.0000    0.0000
  band No.  band energies     occupation 
      1      -6.6372      2.00000
      2      -2.6454      2.00000
      3      -2.6426      2.00000
      4      -2.6324      2.00000
      5      -2.6310      2.00000
      6      -2.6278      2.00000
      7      -2.6091      2.00000
      8       2.3707      2.00000
      9       2.3732      2.00000
     10       2.3752      2.00000
     11       2.3780      2.00000
     12       2.3805      2.00000
     13       2.3885      2.00000
     14       5.0479      2.00000
     15       5.0693      2.00000
     16       5.0828      2.00000
     17       6.1402      0.00000
     18       6.1446      0.00000
     19       6.1529      0.00000
     20       6.1549      0.00000
     21       6.1589      0.00000
     22       6.1676      0.00000
     23       7.8406      0.00000
     24       7.8480      0.00000
     25       7.8600      0.00000
     26       8.1178      0.00000
     27      13.1845      0.00000
     28      13.1867      0.00000
     29      13.2693      0.00000
     30      15.0768      0.00000
     31      15.0914      0.00000
     32      15.0959      0.00000
     33      15.1121      0.00000
     34      15.1284      0.00000
     35      15.1812      0.00000
     36      16.3239      0.00000
     37      16.3291      0.00000
     38      16.3395      0.00000
     39      16.3655      0.00000
     40      16.4293      0.00000
     41      16.4844      0.00000
     42      16.7141      0.00000
     43      16.7187      0.00000
     44      16.8096      0.00000
     45      17.8792      0.00000
     46      17.8934      0.00000
     47      17.9205      0.00000
     48      17.9452      0.00000


--------------------------------------------------------------------------------------------------------


 soft charge-density along one line, spin component           1
         0         1         2         3         4         5         6         7         8         9
 total charge-density along one line
 
 pseudopotential strength for first ion, spin component:           1
 18.661   0.000   0.000   0.000   0.000   0.000   0.000   0.000
  0.000   0.006   0.000   0.000   0.000   0.000   0.000   0.000
  0.000   0.000   4.216   0.000   0.000  -0.004   0.000   0.000
  0.000   0.000   0.000   4.216   0.000   0.000  -0.004   0.000
  0.000   0.000   0.000   0.000   4.216   0.000   0.000  -0.004
  0.000   0.000  -0.004   0.000   0.000   0.005   0.000   0.000
  0.000   0.000   0.000  -0.004   0.000   0.000   0.005   0.000
  0.000   0.000   0.000   0.000  -0.004   0.000   0.000   0.005
 total augmentation occupancy for first ion, spin component:           1
  2.000   0.000   0.000   0.000   0.000   0.000   0.000   0.000
  0.000   0.000   0.000   0.000   0.000   0.000   0.000   0.000
  0.000   0.000   0.667   0.000   0.000   0.000   0.000   0.000
  0.000   0.000   0.000   0.667   0.000   0.000   0.000   0.000
  0.000   0.000   0.000   0.000   0.667   0.000   0.000   0.000
  0.000   0.000   0.000   0.000   0.000   0.000   0.000   0.000
  0.000   0.000   0.000   0.000   0.000   0.000   0.000   0.000
  0.000   0.000   0.000   0.000   0.000   0.000   0.000   0.000


----------------------------------------- Iteration    1(   4)  ---------------------------------------


     EDDAV:  cpu time    2.05: real time    2.05
       DOS:  cpu time    0.00: real time    0.00
    --------------------------------------------
      LOOP:  cpu time    2.06: real time    2.06

 eigenvalue-minimisations  :   192
 total energy-change (2. order) :-0.3543041E-03  (-0.3543041E-03)
 number of electron      32.0000000 magnetization 
 augmentation part       32.0000000 magnetization 

 Free energy of the ion-electron system (eV)
  ---------------------------------------------------
  alpha Z        PSCENC =        12.68944982
  Ewald energy   TEWEN  =      -907.56645851
  -1/2 Hartree   DENC   =       -45.63649030
  -exchange  EXHF       =         0.00000000
  -V(xc)+E(xc)   XCENC  =       -76.79671311
  PAW double counting   =       265.93453375     -123.69690146
  entropy T*S    EENTRO =         0.00000000
  eigenvalues    EBANDS =        14.08084593
  atomic energy  EATOM  =       826.37398168
  ---------------------------------------------------
  free energy    TOTEN  =       -34.61775220 eV

  energy without entropy =      -34.61775220  energy(sigma->0) =      -34.61775220


--------------------------------------------------------------------------------------------------------




 average (electrostatic) potential at core
  the test charge radii are     0.9892
  (the norm of the test charge is              1.0000)
       1 -84.3446       2 -84.3524       3 -84.3501       4 -84.3534       5 -84.3519
       6 -84.3513       7 -84.3560       8 -84.3455
 
 
 
 E-fermi :   5.2026     XC(G=0):  -9.5533     alpha+bet :-11.7379


 k-point   1 :       0.0000    0.0000    0.0000
  band No.  band energies     occupation 
      1      -6.6372      2.00000
      2      -2.6454      2.00000
      3      -2.6426      2.00000
      4      -2.6324      2.00000
      5      -2.6310      2.00000
      6      -2.6278      2.00000
      7      -2.6091      2.00000
      8       2.3707      2.00000
      9       2.3732      2.00000
     10       2.3752      2.00000
     11       2.3780      2.00000
     12       2.3805      2.00000
     13       2.3885      2.00000
     14       5.0479      2.00000
     15       5.0693      2.00000
     16       5.0827      2.00000
     17       6.1402      0.00000
     18       6.1446      0.00000
     19       6.1529      0.00000
     20       6.1549      0.00000
     21       6.1589      0.00000
     22       6.1676      0.00000
     23       7.8405      0.00000
     24       7.8480      0.00000
     25       7.8599      0.00000
     26       8.1178      0.00000
     27      13.1837      0.00000
     28      13.1838      0.00000
     29      13.2693      0.00000
     30      15.0725      0.00000
     31      15.0818      0.00000
     32      15.0846      0.00000
     33      15.0878      0.00000
     34      15.0892      0.00000
     35      15.0927      0.00000
     36      16.2978      0.00000
     37      16.3002      0.00000
     38      16.3062      0.00000
     39      16.3112      0.00000
     40      16.3166      0.00000
     41      16.3301      0.00000
     42      16.6948      0.00000
     43      16.7026      0.00000
     44      16.7158      0.00000
     45      17.8664      0.00000
     46      17.8753      0.00000
     47      17.8880      0.00000
     48      17.8969      0.00000


--------------------------------------------------------------------------------------------------------


 soft charge-density along one line, spin component           1
         0         1         2         3         4         5         6         7         8         9
 total charge-density along one line
 
 pseudopotential strength for first ion, spin component:           1
 18.661   0.000   0.000   0.000   0.000   0.000   0.000   0.000
  0.000   0.006   0.000   0.000   0.000   0.000   0.000   0.000
  0.000   0.000   4.216   0.000   0.000  -0.004   0.000   0.000
  0.000   0.000   0.000   4.216   0.000   0.000  -0.004   0.000
  0.000   0.000   0.000   0.000   4.216   0.000   0.000  -0.004
  0.000   0.000  -0.004   0.000   0.000   0.005   0.000   0.000
  0.000   0.000   0.000  -0.004   0.000   0.000   0.005   0.000
  0.000   0.000   0.000   0.000  -0.004   0.000   0.000   0.005
 total augmentation occupancy for first ion, spin component:           1
  2.000   0.000   0.000   0.000   0.000   0.000   0.000   0.000
  0.000   0.000   0.000   0.000   0.000   0.000   0.000   0.000
  0.000   0.000   0.667   0.000   0.000   0.000   0.000   0.000
  0.000   0.000   0.000   0.667   0.000   0.000   0.000   0.000
  0.000   0.000   0.000   0.000   0.667   0.000   0.000   0.000
  0.000   0.000   0.000   0.000   0.000   0.000   0.000   0.000
  0.000   0.000   0.000   0.000   0.000   0.000   0.000   0.000
  0.000   0.000   0.000   0.000   0.000   0.000   0.000   0.000


----------------------------------------- Iteration    1(   5)  ---------------------------------------


     EDDAV:  cpu time    0.39: real time    0.39
       DOS:  cpu time    0.00: real time    0.00
    CHARGE:  cpu time    0.02: real time    0.02
    MIXING:  cpu time    0.00: real time    0.00
    --------------------------------------------
      LOOP:  cpu time    0.42: real time    0.43

 eigenvalue-minimisations  :    96
 total energy-change (2. order) :-0.3034756E-08  (-0.3035571E-08)
 number of electron      31.9999999 magnetization 
 augmentation part       -1.8053358 magnetization 

 Broyden mixing:
  rms(total) = 0.79306E+00    rms(broyden)= 0.79301E+00
  rms(prec ) = 0.15229E+01
  weight for this iteration     100.00

 Free energy of the ion-electron system (eV)
  ---------------------------------------------------
  alpha Z        PSCENC =        12.68944982
  Ewald energy   TEWEN  =      -907.56645851
  -1/2 Hartree   DENC   =       -45.63649030
  -exchange  EXHF       =         0.00000000
  -V(xc)+E(xc)   XCENC  =       -76.79671311
  PAW double counting   =       265.93453375     -123.69690146
  entropy T*S    EENTRO =         0.00000000
  eigenvalues    EBANDS =        14.08084593
  atomic energy  EATOM  =       826.37398168
  ---------------------------------------------------
  free energy    TOTEN  =       -34.61775220 eV

  energy without entropy =      -34.61775220  energy(sigma->0) =      -34.61775220


--------------------------------------------------------------------------------------------------------




 average (electrostatic) potential at core
  the test charge radii are     0.9892
  (the norm of the test charge is              1.0000)
       1 -84.3446       2 -84.3524       3 -84.3501       4 -84.3534       5 -84.3519
       6 -84.3513       7 -84.3560       8 -84.3455
 
 
 
 E-fermi :   5.1979     XC(G=0):  -9.5533     alpha+bet :-11.7379


 k-point   1 :       0.0000    0.0000    0.0000
  band No.  band energies     occupation 
      1      -6.6372      2.00000
      2      -2.6454      2.00000
      3      -2.6426      2.00000
      4      -2.6324      2.00000
      5      -2.6310      2.00000
      6      -2.6278      2.00000
      7      -2.6091      2.00000
      8       2.3707      2.00000
      9       2.3732      2.00000
     10       2.3752      2.00000
     11       2.3780      2.00000
     12       2.3805      2.00000
     13       2.3885      2.00000
     14       5.0479      2.00000
     15       5.0693      2.00000
     16       5.0827      2.00000
     17       6.1402      0.00000
     18       6.1446      0.00000
     19       6.1529      0.00000
     20       6.1549      0.00000
     21       6.1589      0.00000
     22       6.1676      0.00000
     23       7.8405      0.00000
     24       7.8480      0.00000
     25       7.8599      0.00000
     26       8.1178      0.00000
     27      13.1837      0.00000
     28      13.1838      0.00000
     29      13.2693      0.00000
     30      15.0725      0.00000
     31      15.0818      0.00000
     32      15.0846      0.00000
     33      15.0878      0.00000
     34      15.0891      0.00000
     35      15.0926      0.00000
     36      16.2976      0.00000
     37      16.2995      0.00000
     38      16.3059      0.00000
     39      16.3109      0.00000
     40      16.3163      0.00000
     41      16.3300      0.00000
     42      16.6946      0.00000
     43      16.7025      0.00000
     44      16.7157      0.00000
     45      17.8632      0.00000
     46      17.8690      0.00000
     47      17.8793      0.00000
     48      17.8872      0.00000


--------------------------------------------------------------------------------------------------------


 soft charge-density along one line, spin component           1
         0         1         2         3         4         5         6         7         8         9
 total charge-density along one line
 
 pseudopotential strength for first ion, spin component:           1
 18.661   0.000   0.000   0.000   0.000   0.000   0.000   0.000
  0.000   0.006   0.000   0.000   0.000   0.000   0.000   0.000
  0.000   0.000   4.216   0.000   0.000  -0.004   0.000   0.000
  0.000   0.000   0.000   4.216   0.000   0.000  -0.004   0.000
  0.000   0.000   0.000   0.000   4.216   0.000   0.000  -0.004
  0.000   0.000  -0.004   0.000   0.000   0.005   0.000   0.000
  0.000   0.000   0.000  -0.004   0.000   0.000   0.005   0.000
  0.000   0.000   0.000   0.000  -0.004   0.000   0.000   0.005
 total augmentation occupancy for first ion, spin component:           1
  1.380  -1.049   0.002   0.001  -0.003  -0.002  -0.001   0.003
 -1.049   0.915  -0.001   0.000   0.003   0.002   0.000  -0.004
  0.002  -0.001   1.164  -0.002   0.000  -0.757   0.003  -0.001
  0.001   0.000  -0.002   1.165   0.001   0.003  -0.757  -0.003
 -0.003   0.003   0.000   0.001   1.163  -0.001  -0.003  -0.756
 -0.002   0.002  -0.757   0.003  -0.001   0.568  -0.004   0.001
 -0.001   0.000   0.003  -0.757  -0.003  -0.004   0.568   0.003
  0.003  -0.004  -0.001  -0.003  -0.756   0.001   0.003   0.567


----------------------------------------- Iteration    1(   6)  ---------------------------------------


    POTLOK:  cpu time    0.02: real time    0.02
    SETDIJ:  cpu time    0.02: real time    0.02
    EDDIAG:  cpu time    0.03: real time    0.03
  RMM-DIIS:  cpu time    0.02: real time    0.02
    ORTHCH:  cpu time    0.01: real time    0.01
       DOS:  cpu time    0.00: real time    0.00
    CHARGE:  cpu time    0.02: real time    0.02
    MIXING:  cpu time    0.00: real time    0.00
    --------------------------------------------
      LOOP:  cpu time    0.14: real time    0.14

 eigenvalue-minimisations  :    96
 total energy-change (2. order) : 0.1001721E+01  (-0.3198521E-01)
 number of electron      31.9999999 magnetization 
 augmentation part       -1.7684068 magnetization 

 Broyden mixing:
  rms(total) = 0.47400E+00    rms(broyden)= 0.47399E+00
  rms(prec ) = 0.91066E+00
  weight for this iteration     100.00

 eigenvalues of (default mixing * dielectric matrix)
  average eigenvalue GAMMA=   2.4573
  2.4573

 Free energy of the ion-electron system (eV)
  ---------------------------------------------------
  alpha Z        PSCENC =        12.68944982
  Ewald energy   TEWEN  =      -907.56645851
  -1/2 Hartree   DENC   =       -54.68304350
  -exchange  EXHF       =         0.00000000
  -V(xc)+E(xc)   XCENC  =       -75.44940569
  PAW double counting   =       286.06078351     -144.35909511
  entropy T*S    EENTRO =         0.00000000
  eigenvalues    EBANDS =        23.31775619
  atomic energy  EATOM  =       826.37398168
  ---------------------------------------------------
  free energy    TOTEN  =       -33.61603162 eV

  energy without entropy =      -33.61603162  energy(sigma->0) =      -33.61603162


--------------------------------------------------------------------------------------------------------




 average (electrostatic) potential at core
  the test charge radii are     0.9892
  (the norm of the test charge is              1.0000)
       1 -83.8298       2 -83.8337       3 -83.8326       4 -83.8342       5 -83.8335
       6 -83.8332       7 -83.8354       8 -83.8302
 
 
 
 E-fermi :   5.5605     XC(G=0):  -9.4504     alpha+bet :-11.7379


 k-point   1 :       0.0000    0.0000    0.0000
  band No.  band energies     occupation 
      1      -6.3788      2.00000
      2      -2.3450      2.00000
      3      -2.3428      2.00000
      4      -2.3341      2.00000
      5      -2.3316      2.00000
      6      -2.3287      2.00000
      7      -2.3126      2.00000
      8       2.6322      2.00000
      9       2.6348      2.00000
     10       2.6365      2.00000
     11       2.6391      2.00000
     12       2.6412      2.00000
     13       2.6485      2.00000
     14       5.3817      2.00000
     15       5.4026      2.00000
     16       5.4158      2.00000
     17       6.2555      0.00000
     18       6.2601      0.00000
     19       6.2667      0.00000
     20       6.2693      0.00000
     21       6.2729      0.00000
     22       6.2811      0.00000
     23       8.0478      0.00000
     24       8.0554      0.00000
     25       8.0675      0.00000
     26       8.4862      0.00000
     27      13.3050      0.00000
     28      13.3569      0.00000
     29      13.3569      0.00000
     30      15.3693      0.00000
     31      15.3783      0.00000
     32      15.3808      0.00000
     33      15.3836      0.00000
     34      15.3854      0.00000
     35      15.3880      0.00000
     36      16.5346      0.00000
     37      16.5362      0.00000
     38      16.5422      0.00000
     39      16.5467      0.00000
     40      16.5515      0.00000
     41      16.5639      0.00000
     42      16.7392      0.00000
     43      16.7471      0.00000
     44      16.7605      0.00000
     45      18.1533      0.00000
     46      18.1581      0.00000
     47      18.1683      0.00000
     48      18.1750      0.00000


--------------------------------------------------------------------------------------------------------


 soft charge-density along one line, spin component           1
         0         1         2         3         4         5         6         7         8         9
 total charge-density along one line
 
 pseudopotential strength for first ion, spin component:           1
 18.634  -0.001   0.000   0.000   0.000   0.000   0.000   0.000
 -0.001   0.006   0.000   0.000   0.000   0.000   0.000   0.000
  0.000   0.000   4.221   0.000   0.000  -0.004   0.000   0.000
  0.000   0.000   0.000   4.221   0.000   0.000  -0.004   0.000
  0.000   0.000   0.000   0.000   4.221   0.000   0.000  -0.004
  0.000   0.000  -0.004   0.000   0.000   0.005   0.000   0.000
  0.000   0.000   0.000  -0.004   0.000   0.000   0.005   0.000
  0.000   0.000   0.000   0.000  -0.004   0.000   0.000   0.005
 total augmentation occupancy for first ion, spin component:           1
  1.351  -1.088   0.001   0.001  -0.003  -0.002  -0.001   0.004
 -1.088   0.993  -0.001   0.000   0.002   0.002   0.000  -0.004
  0.001  -0.001   1.147  -0.002   0.000  -0.780   0.004  -0.001
  0.001   0.000  -0.002   1.147   0.001   0.003  -0.781  -0.003
 -0.003   0.002   0.000   0.001   1.145  -0.001  -0.003  -0.779
 -0.002   0.002  -0.780   0.003  -0.001   0.606  -0.004   0.001
 -0.001   0.000   0.004  -0.781  -0.003  -0.004   0.606   0.003
  0.004  -0.004  -0.001  -0.003  -0.779   0.001   0.003   0.605


----------------------------------------- Iteration    1(   7)  ---------------------------------------


    POTLOK:  cpu time    0.02: real time    0.02
    SETDIJ:  cpu time    0.02: real time    0.02
    EDDIAG:  cpu time    0.02: real time    0.02
  RMM-DIIS:  cpu time    0.02: real time    0.02
    ORTHCH:  cpu time    0.01: real time    0.01
       DOS:  cpu time    0.00: real time    0.00
    CHARGE:  cpu time    0.02: real time    0.02
    MIXING:  cpu time    0.00: real time    0.00
    --------------------------------------------
      LOOP:  cpu time    0.12: real time    0.12

 eigenvalue-minimisations  :    96
 total energy-change (2. order) : 0.4246704E+00  (-0.7389087E-01)
 number of electron      31.9999999 magnetization 
 augmentation part       -1.7214523 magnetization 

 Broyden mixing:
  rms(total) = 0.46249E-01    rms(broyden)= 0.46239E-01
  rms(prec ) = 0.78454E-01
  weight for this iteration     100.00

 eigenvalues of (default mixing * dielectric matrix)
  average eigenvalue GAMMA=   2.5301
  2.5301  2.5301

 Free energy of the ion-electron system (eV)
  ---------------------------------------------------
  alpha Z        PSCENC =        12.68944982
  Ewald energy   TEWEN  =      -907.56645851
  -1/2 Hartree   DENC   =       -70.51415846
  -exchange  EXHF       =         0.00000000
  -V(xc)+E(xc)   XCENC  =       -73.00924699
  PAW double counting   =       313.72511610     -172.73714164
  entropy T*S    EENTRO =         0.00000000
  eigenvalues    EBANDS =        37.84709677
  atomic energy  EATOM  =       826.37398168
  ---------------------------------------------------
  free energy    TOTEN  =       -33.19136124 eV

  energy without entropy =      -33.19136124  energy(sigma->0) =      -33.19136124


--------------------------------------------------------------------------------------------------------




 average (electrostatic) potential at core
  the test charge radii are     0.9892
  (the norm of the test charge is              1.0000)
       1 -83.1438       2 -83.1456       3 -83.1455       4 -83.1465       5 -83.1457
       6 -83.1459       7 -83.1473       8 -83.1440
 
 
 
 E-fermi :   6.0961     XC(G=0):  -9.2018     alpha+bet :-11.7379


 k-point   1 :       0.0000    0.0000    0.0000
  band No.  band energies     occupation 
      1      -5.9621      2.00000
      2      -1.8775      2.00000
      3      -1.8753      2.00000
      4      -1.8681      2.00000
      5      -1.8650      2.00000
      6      -1.8619      2.00000
      7      -1.8484      2.00000
      8       3.0451      2.00000
      9       3.0481      2.00000
     10       3.0495      2.00000
     11       3.0517      2.00000
     12       3.0533      2.00000
     13       3.0601      2.00000
     14       5.9068      2.00000
     15       5.9272      2.00000
     16       5.9400      2.00000
     17       6.5149      0.00000
     18       6.5198      0.00000
     19       6.5242      0.00000
     20       6.5275      0.00000
     21       6.5310      0.00000
     22       6.5383      0.00000
     23       8.3727      0.00000
     24       8.3804      0.00000
     25       8.3929      0.00000
     26       9.0452      0.00000
     27      13.6013      0.00000
     28      13.6204      0.00000
     29      13.6204      0.00000
     30      15.8201      0.00000
     31      15.8284      0.00000
     32      15.8309      0.00000
     33      15.8333      0.00000
     34      15.8353      0.00000
     35      15.8372      0.00000
     36      16.8925      0.00000
     37      16.9019      0.00000
     38      16.9149      0.00000
     39      16.9555      0.00000
     40      16.9565      0.00000
     41      16.9618      0.00000
     42      16.9659      0.00000
     43      16.9698      0.00000
     44      16.9825      0.00000
     45      18.6549      0.00000
     46      18.6566      0.00000
     47      18.6690      0.00000
     48      18.6737      0.00000


--------------------------------------------------------------------------------------------------------


 soft charge-density along one line, spin component           1
         0         1         2         3         4         5         6         7         8         9
 total charge-density along one line
 
 pseudopotential strength for first ion, spin component:           1
 18.596  -0.001   0.000   0.000   0.000   0.000   0.000   0.000
 -0.001   0.006   0.000   0.000   0.000   0.000   0.000   0.000
  0.000   0.000   4.227   0.000   0.000  -0.005   0.000   0.000
  0.000   0.000   0.000   4.227   0.000   0.000  -0.005   0.000
  0.000   0.000   0.000   0.000   4.227   0.000   0.000  -0.005
  0.000   0.000  -0.005   0.000   0.000   0.005   0.000   0.000
  0.000   0.000   0.000  -0.005   0.000   0.000   0.005   0.000
  0.000   0.000   0.000   0.000  -0.005   0.000   0.000   0.005
 total augmentation occupancy for first ion, spin component:           1
  1.314  -1.110   0.001   0.001  -0.003  -0.003  -0.001   0.005
 -1.110   1.054  -0.001   0.000   0.001   0.002   0.000  -0.004
  0.001  -0.001   1.122  -0.003   0.000  -0.804   0.004  -0.001
  0.001   0.000  -0.003   1.123   0.001   0.004  -0.804  -0.003
 -0.003   0.001   0.000   0.001   1.121  -0.001  -0.003  -0.803
 -0.003   0.002  -0.804   0.004  -0.001   0.650  -0.004   0.001
 -0.001   0.000   0.004  -0.804  -0.003  -0.004   0.650   0.003
  0.005  -0.004  -0.001  -0.003  -0.803   0.001   0.003   0.649


----------------------------------------- Iteration    1(   8)  ---------------------------------------


    POTLOK:  cpu time    0.02: real time    0.02
    SETDIJ:  cpu time    0.02: real time    0.02
    EDDIAG:  cpu time    0.02: real time    0.02
  RMM-DIIS:  cpu time    0.04: real time    0.04
    ORTHCH:  cpu time    0.01: real time    0.01
       DOS:  cpu time    0.00: real time    0.00
    CHARGE:  cpu time    0.02: real time    0.02
    MIXING:  cpu time    0.00: real time    0.00
    --------------------------------------------
      LOOP:  cpu time    0.13: real time    0.14

 eigenvalue-minimisations  :    96
 total energy-change (2. order) :-0.3198190E-01  (-0.2162183E-02)
 number of electron      31.9999999 magnetization 
 augmentation part       -1.7275466 magnetization 

 Broyden mixing:
  rms(total) = 0.74887E-02    rms(broyden)= 0.74882E-02
  rms(prec ) = 0.17954E-01
  weight for this iteration     100.00

 eigenvalues of (default mixing * dielectric matrix)
  average eigenvalue GAMMA=   2.1211
  1.2739  2.8649  2.2247

 Free energy of the ion-electron system (eV)
  ---------------------------------------------------
  alpha Z        PSCENC =        12.68944982
  Ewald energy   TEWEN  =      -907.56645851
  -1/2 Hartree   DENC   =       -70.39914388
  -exchange  EXHF       =         0.00000000
  -V(xc)+E(xc)   XCENC  =       -72.96567931
  PAW double counting   =       307.36302975     -166.19025055
  entropy T*S    EENTRO =         0.00000000
  eigenvalues    EBANDS =        37.47172786
  atomic energy  EATOM  =       826.37398168
  ---------------------------------------------------
  free energy    TOTEN  =       -33.22334314 eV

  energy without entropy =      -33.22334314  energy(sigma->0) =      -33.22334314


--------------------------------------------------------------------------------------------------------




 average (electrostatic) potential at core
  the test charge radii are     0.9892
  (the norm of the test charge is              1.0000)
       1 -83.2440       2 -83.2495       3 -83.2482       4 -83.2507       5 -83.2494
       6 -83.2491       7 -83.2525       8 -83.2446
 
 
 
 E-fermi :   6.0348     XC(G=0):  -9.1504     alpha+bet :-11.7379


 k-point   1 :       0.0000    0.0000    0.0000
  band No.  band energies     occupation 
      1      -5.9632      2.00000
      2      -1.8897      2.00000
      3      -1.8875      2.00000
      4      -1.8794      2.00000
      5      -1.8767      2.00000
      6      -1.8737      2.00000
      7      -1.8585      2.00000
      8       3.0333      2.00000
      9       3.0364      2.00000
     10       3.0380      2.00000
     11       3.0402      2.00000
     12       3.0418      2.00000
     13       3.0492      2.00000
     14       5.8906      2.00000
     15       5.9111      2.00000
     16       5.9239      2.00000
     17       6.5655      0.00000
     18       6.5704      0.00000
     19       6.5752      0.00000
     20       6.5785      0.00000
     21       6.5821      0.00000
     22       6.5896      0.00000
     23       8.3621      0.00000
     24       8.3698      0.00000
     25       8.3821      0.00000
     26       9.0381      0.00000
     27      13.6064      0.00000
     28      13.6065      0.00000
     29      13.7783      0.00000
     30      15.8055      0.00000
     31      15.8134      0.00000
     32      15.8163      0.00000
     33      15.8188      0.00000
     34      15.8205      0.00000
     35      15.8229      0.00000
     36      16.9290      0.00000
     37      16.9390      0.00000
     38      16.9508      0.00000
     39      16.9618      0.00000
     40      16.9631      0.00000
     41      16.9681      0.00000
     42      16.9725      0.00000
     43      16.9764      0.00000
     44      16.9902      0.00000
     45      18.6909      0.00000
     46      18.6950      0.00000
     47      18.7067      0.00000
     48      18.7114      0.00000


--------------------------------------------------------------------------------------------------------


 soft charge-density along one line, spin component           1
         0         1         2         3         4         5         6         7         8         9
 total charge-density along one line
 
 pseudopotential strength for first ion, spin component:           1
 18.598  -0.001   0.000   0.000   0.000   0.000   0.000   0.000
 -0.001   0.006   0.000   0.000   0.000   0.000   0.000   0.000
  0.000   0.000   4.224   0.000   0.000  -0.005   0.000   0.000
  0.000   0.000   0.000   4.224   0.000   0.000  -0.005   0.000
  0.000   0.000   0.000   0.000   4.224   0.000   0.000  -0.005
  0.000   0.000  -0.005   0.000   0.000   0.005   0.000   0.000
  0.000   0.000   0.000  -0.005   0.000   0.000   0.005   0.000
  0.000   0.000   0.000   0.000  -0.005   0.000   0.000   0.005
 total augmentation occupancy for first ion, spin component:           1
  1.320  -1.090   0.001   0.001  -0.003  -0.002  -0.001   0.004
 -1.090   1.017  -0.001   0.000   0.002   0.002   0.000  -0.004
  0.001  -0.001   1.123  -0.002   0.000  -0.800   0.004  -0.001
  0.001   0.000  -0.002   1.124   0.001   0.004  -0.800  -0.003
 -0.003   0.002   0.000   0.001   1.122  -0.001  -0.003  -0.799
 -0.002   0.002  -0.800   0.004  -0.001   0.645  -0.004   0.001
 -0.001   0.000   0.004  -0.800  -0.003  -0.004   0.646   0.003
  0.004  -0.004  -0.001  -0.003  -0.799   0.001   0.003   0.644


----------------------------------------- Iteration    1(   9)  ---------------------------------------


    POTLOK:  cpu time    0.02: real time    0.02
    SETDIJ:  cpu time    0.02: real time    0.02
    EDDIAG:  cpu time    0.02: real time    0.02
  RMM-DIIS:  cpu time    0.06: real time    0.06
    ORTHCH:  cpu time    0.01: real time    0.01
       DOS:  cpu time    0.00: real time    0.00
    CHARGE:  cpu time    0.02: real time    0.02
    MIXING:  cpu time    0.00: real time    0.00
    --------------------------------------------
      LOOP:  cpu time    0.16: real time    0.16

 eigenvalue-minimisations  :   107
 total energy-change (2. order) :-0.1132321E-02  (-0.1264180E-03)
 number of electron      31.9999999 magnetization 
 augmentation part       -1.7274638 magnetization 

 Broyden mixing:
  rms(total) = 0.41732E-02    rms(broyden)= 0.41731E-02
  rms(prec ) = 0.68395E-02
  weight for this iteration     100.00

 eigenvalues of (default mixing * dielectric matrix)
  average eigenvalue GAMMA=   2.3003
  0.9881  3.2417  2.6827  2.2885

 Free energy of the ion-electron system (eV)
  ---------------------------------------------------
  alpha Z        PSCENC =        12.68944982
  Ewald energy   TEWEN  =      -907.56645851
  -1/2 Hartree   DENC   =       -70.79589956
  -exchange  EXHF       =         0.00000000
  -V(xc)+E(xc)   XCENC  =       -72.90644184
  PAW double counting   =       307.71523513     -166.55289976
  entropy T*S    EENTRO =         0.00000000
  eigenvalues    EBANDS =        37.81855759
  atomic energy  EATOM  =       826.37398168
  ---------------------------------------------------
  free energy    TOTEN  =       -33.22447546 eV

  energy without entropy =      -33.22447546  energy(sigma->0) =      -33.22447546


--------------------------------------------------------------------------------------------------------




 average (electrostatic) potential at core
  the test charge radii are     0.9892
  (the norm of the test charge is              1.0000)
       1 -83.2307       2 -83.2352       3 -83.2339       4 -83.2358       5 -83.2350
       6 -83.2346       7 -83.2372       8 -83.2312
 
 
 
 E-fermi :   6.0494     XC(G=0):  -9.1362     alpha+bet :-11.7379


 k-point   1 :       0.0000    0.0000    0.0000
  band No.  band energies     occupation 
      1      -5.9519      2.00000
      2      -1.8783      2.00000
      3      -1.8761      2.00000
      4      -1.8683      2.00000
      5      -1.8655      2.00000
      6      -1.8625      2.00000
      7      -1.8479      2.00000
      8       3.0433      2.00000
      9       3.0463      2.00000
     10       3.0478      2.00000
     11       3.0500      2.00000
     12       3.0516      2.00000
     13       3.0588      2.00000
     14       5.9027      2.00000
     15       5.9232      2.00000
     16       5.9360      2.00000
     17       6.5795      0.00000
     18       6.5843      0.00000
     19       6.5893      0.00000
     20       6.5925      0.00000
     21       6.5962      0.00000
     22       6.6037      0.00000
     23       8.3698      0.00000
     24       8.3774      0.00000
     25       8.3897      0.00000
     26       9.0526      0.00000
     27      13.6117      0.00000
     28      13.6117      0.00000
     29      13.8105      0.00000
     30      15.8159      0.00000
     31      15.8241      0.00000
     32      15.8268      0.00000
     33      15.8292      0.00000
     34      15.8311      0.00000
     35      15.8333      0.00000
     36      16.9391      0.00000
     37      16.9490      0.00000
     38      16.9610      0.00000
     39      16.9740      0.00000
     40      16.9752      0.00000
     41      16.9803      0.00000
     42      16.9846      0.00000
     43      16.9885      0.00000
     44      17.0020      0.00000
     45      18.7087      0.00000
     46      18.7134      0.00000
     47      18.7251      0.00000
     48      18.7295      0.00000


--------------------------------------------------------------------------------------------------------


 soft charge-density along one line, spin component           1
         0         1         2         3         4         5         6         7         8         9
 total charge-density along one line
 
 pseudopotential strength for first ion, spin component:           1
 18.597  -0.001   0.000   0.000   0.000   0.000   0.000   0.000
 -0.001   0.006   0.000   0.000   0.000   0.000   0.000   0.000
  0.000   0.000   4.224   0.000   0.000  -0.005   0.000   0.000
  0.000   0.000   0.000   4.224   0.000   0.000  -0.005   0.000
  0.000   0.000   0.000   0.000   4.224   0.000   0.000  -0.005
  0.000   0.000  -0.005   0.000   0.000   0.005   0.000   0.000
  0.000   0.000   0.000  -0.005   0.000   0.000   0.005   0.000
  0.000   0.000   0.000   0.000  -0.005   0.000   0.000   0.005
 total augmentation occupancy for first ion, spin component:           1
  1.320  -1.085   0.001   0.001  -0.003  -0.002  -0.001   0.004
 -1.085   1.009  -0.001   0.000   0.002   0.002   0.000  -0.004
  0.001  -0.001   1.123  -0.002   0.000  -0.799   0.004  -0.001
  0.001   0.000  -0.002   1.123   0.001   0.004  -0.800  -0.003
 -0.003   0.002   0.000   0.001   1.121  -0.001  -0.003  -0.798
 -0.002   0.002  -0.799   0.004  -0.001   0.645  -0.004   0.001
 -0.001   0.000   0.004  -0.800  -0.003  -0.004   0.646   0.003
  0.004  -0.004  -0.001  -0.003  -0.798   0.001   0.003   0.644


----------------------------------------- Iteration    1(  10)  ---------------------------------------


    POTLOK:  cpu time    0.02: real time    0.02
    SETDIJ:  cpu time    0.02: real time    0.02
    EDDIAG:  cpu time    0.02: real time    0.02
  RMM-DIIS:  cpu time    0.04: real time    0.04
    ORTHCH:  cpu time    0.01: real time    0.01
       DOS:  cpu time    0.00: real time    0.00
    CHARGE:  cpu time    0.02: real time    0.02
    MIXING:  cpu time    0.00: real time    0.00
    --------------------------------------------
      LOOP:  cpu time    0.14: real time    0.14

 eigenvalue-minimisations  :   104
 total energy-change (2. order) :-0.1845304E-03  (-0.2424381E-04)
 number of electron      31.9999999 magnetization 
 augmentation part       -1.7273407 magnetization 

 Broyden mixing:
  rms(total) = 0.46593E-03    rms(broyden)= 0.46550E-03
  rms(prec ) = 0.93468E-03
  weight for this iteration     100.00

 eigenvalues of (default mixing * dielectric matrix)
  average eigenvalue GAMMA=   2.0371
  3.0877  2.6230  2.1627  0.9782  1.3340

 Free energy of the ion-electron system (eV)
  ---------------------------------------------------
  alpha Z        PSCENC =        12.68944982
  Ewald energy   TEWEN  =      -907.56645851
  -1/2 Hartree   DENC   =       -70.84797884
  -exchange  EXHF       =         0.00000000
  -V(xc)+E(xc)   XCENC  =       -72.90953663
  PAW double counting   =       307.80438079     -166.64827363
  entropy T*S    EENTRO =         0.00000000
  eigenvalues    EBANDS =        37.87977533
  atomic energy  EATOM  =       826.37398168
  ---------------------------------------------------
  free energy    TOTEN  =       -33.22465999 eV

  energy without entropy =      -33.22465999  energy(sigma->0) =      -33.22465999


--------------------------------------------------------------------------------------------------------




 average (electrostatic) potential at core
  the test charge radii are     0.9892
  (the norm of the test charge is              1.0000)
       1 -83.2230       2 -83.2263       3 -83.2254       4 -83.2268       5 -83.2262
       6 -83.2259       7 -83.2278       8 -83.2233
 
 
 
 E-fermi :   6.0541     XC(G=0):  -9.1307     alpha+bet :-11.7379


 k-point   1 :       0.0000    0.0000    0.0000
  band No.  band energies     occupation 
      1      -5.9495      2.00000
      2      -1.8761      2.00000
      3      -1.8740      2.00000
      4      -1.8663      2.00000
      5      -1.8634      2.00000
      6      -1.8604      2.00000
      7      -1.8462      2.00000
      8       3.0450      2.00000
      9       3.0480      2.00000
     10       3.0494      2.00000
     11       3.0516      2.00000
     12       3.0533      2.00000
     13       3.0603      2.00000
     14       5.9049      2.00000
     15       5.9252      2.00000
     16       5.9380      2.00000
     17       6.5847      0.00000
     18       6.5896      0.00000
     19       6.5946      0.00000
     20       6.5978      0.00000
     21       6.6015      0.00000
     22       6.6090      0.00000
     23       8.3707      0.00000
     24       8.3784      0.00000
     25       8.3906      0.00000
     26       9.0563      0.00000
     27      13.6117      0.00000
     28      13.6117      0.00000
     29      13.8264      0.00000
     30      15.8177      0.00000
     31      15.8260      0.00000
     32      15.8286      0.00000
     33      15.8310      0.00000
     34      15.8330      0.00000
     35      15.8350      0.00000
     36      16.9431      0.00000
     37      16.9530      0.00000
     38      16.9648      0.00000
     39      16.9767      0.00000
     40      16.9780      0.00000
     41      16.9830      0.00000
     42      16.9873      0.00000
     43      16.9911      0.00000
     44      17.0045      0.00000
     45      18.7163      0.00000
     46      18.7199      0.00000
     47      18.7318      0.00000
     48      18.7366      0.00000


--------------------------------------------------------------------------------------------------------


 soft charge-density along one line, spin component           1
         0         1         2         3         4         5         6         7         8         9
 total charge-density along one line
 
 pseudopotential strength for first ion, spin component:           1
 18.597  -0.001   0.000   0.000   0.000   0.000   0.000   0.000
 -0.001   0.006   0.000   0.000   0.000   0.000   0.000   0.000
  0.000   0.000   4.224   0.000   0.000  -0.005   0.000   0.000
  0.000   0.000   0.000   4.224   0.000   0.000  -0.005   0.000
  0.000   0.000   0.000   0.000   4.224   0.000   0.000  -0.005
  0.000   0.000  -0.005   0.000   0.000   0.005   0.000   0.000
  0.000   0.000   0.000  -0.005   0.000   0.000   0.005   0.000
  0.000   0.000   0.000   0.000  -0.005   0.000   0.000   0.005
 total augmentation occupancy for first ion, spin component:           1
  1.320  -1.085   0.001   0.001  -0.003  -0.002  -0.001   0.004
 -1.085   1.009  -0.001   0.000   0.002   0.002   0.000  -0.004
  0.001  -0.001   1.123  -0.002   0.000  -0.800   0.004  -0.001
  0.001   0.000  -0.002   1.123   0.001   0.004  -0.800  -0.003
 -0.003   0.002   0.000   0.001   1.121  -0.001  -0.003  -0.799
 -0.002   0.002  -0.800   0.004  -0.001   0.646  -0.004   0.001
 -0.001   0.000   0.004  -0.800  -0.003  -0.004   0.646   0.003
  0.004  -0.004  -0.001  -0.003  -0.799   0.001   0.003   0.645


----------------------------------------- Iteration    1(  11)  ---------------------------------------


    POTLOK:  cpu time    0.02: real time    0.02
    SETDIJ:  cpu time    0.02: real time    0.02
    EDDIAG:  cpu time    0.02: real time    0.02
  RMM-DIIS:  cpu time    0.05: real time    0.05
    ORTHCH:  cpu time    0.01: real time    0.01
       DOS:  cpu time    0.00: real time    0.00
    CHARGE:  cpu time    0.02: real time    0.02
    MIXING:  cpu time    0.00: real time    0.00
    --------------------------------------------
      LOOP:  cpu time    0.14: real time    0.15

 eigenvalue-minimisations  :   117
 total energy-change (2. order) : 0.4501161E-05  (-0.3421490E-06)
 number of electron      31.9999999 magnetization 
 augmentation part       -1.7274418 magnetization 

 Broyden mixing:
  rms(total) = 0.16288E-03    rms(broyden)= 0.16283E-03
  rms(prec ) = 0.31951E-03
  weight for this iteration     100.00

 eigenvalues of (default mixing * dielectric matrix)
  average eigenvalue GAMMA=   1.9627
  3.2021  2.6994  2.1543  1.7796  0.9705  0.9705

 Free energy of the ion-electron system (eV)
  ---------------------------------------------------
  alpha Z        PSCENC =        12.68944982
  Ewald energy   TEWEN  =      -907.56645851
  -1/2 Hartree   DENC   =       -70.82800579
  -exchange  EXHF       =         0.00000000
  -V(xc)+E(xc)   XCENC  =       -72.91089927
  PAW double counting   =       307.73369164     -166.57483153
  entropy T*S    EENTRO =         0.00000000
  eigenvalues    EBANDS =        37.85841648
  atomic energy  EATOM  =       826.37398168
  ---------------------------------------------------
  free energy    TOTEN  =       -33.22465549 eV

  energy without entropy =      -33.22465549  energy(sigma->0) =      -33.22465549


--------------------------------------------------------------------------------------------------------




 average (electrostatic) potential at core
  the test charge radii are     0.9892
  (the norm of the test charge is              1.0000)
       1 -83.2246       2 -83.2287       3 -83.2276       4 -83.2293       5 -83.2285
       6 -83.2281       7 -83.2305       8 -83.2250
 
 
 
 E-fermi :   6.0539     XC(G=0):  -9.1314     alpha+bet :-11.7379


 k-point   1 :       0.0000    0.0000    0.0000
  band No.  band energies     occupation 
      1      -5.9502      2.00000
      2      -1.8769      2.00000
      3      -1.8748      2.00000
      4      -1.8670      2.00000
      5      -1.8642      2.00000
      6      -1.8611      2.00000
      7      -1.8466      2.00000
      8       3.0444      2.00000
      9       3.0474      2.00000
     10       3.0488      2.00000
     11       3.0510      2.00000
     12       3.0527      2.00000
     13       3.0598      2.00000
     14       5.9041      2.00000
     15       5.9245      2.00000
     16       5.9373      2.00000
     17       6.5841      0.00000
     18       6.5889      0.00000
     19       6.5939      0.00000
     20       6.5971      0.00000
     21       6.6008      0.00000
     22       6.6083      0.00000
     23       8.3703      0.00000
     24       8.3779      0.00000
     25       8.3902      0.00000
     26       9.0553      0.00000
     27      13.6114      0.00000
     28      13.6114      0.00000
     29      13.8249      0.00000
     30      15.8170      0.00000
     31      15.8252      0.00000
     32      15.8279      0.00000
     33      15.8303      0.00000
     34      15.8322      0.00000
     35      15.8344      0.00000
     36      16.9426      0.00000
     37      16.9525      0.00000
     38      16.9643      0.00000
     39      16.9760      0.00000
     40      16.9773      0.00000
     41      16.9823      0.00000
     42      16.9866      0.00000
     43      16.9904      0.00000
     44      17.0040      0.00000
     45      18.7174      0.00000
     46      18.7195      0.00000
     47      18.7313      0.00000
     48      18.7368      0.00000


--------------------------------------------------------------------------------------------------------


 soft charge-density along one line, spin component           1
         0         1         2         3         4         5         6         7         8         9
 total charge-density along one line
 
 pseudopotential strength for first ion, spin component:           1
 18.597  -0.001   0.000   0.000   0.000   0.000   0.000   0.000
 -0.001   0.006   0.000   0.000   0.000   0.000   0.000   0.000
  0.000   0.000   4.224   0.000   0.000  -0.005   0.000   0.000
  0.000   0.000   0.000   4.224   0.000   0.000  -0.005   0.000
  0.000   0.000   0.000   0.000   4.224   0.000   0.000  -0.005
  0.000   0.000  -0.005   0.000   0.000   0.005   0.000   0.000
  0.000   0.000   0.000  -0.005   0.000   0.000   0.005   0.000
  0.000   0.000   0.000   0.000  -0.005   0.000   0.000   0.005
 total augmentation occupancy for first ion, spin component:           1
  1.320  -1.084   0.001   0.001  -0.003  -0.002  -0.001   0.004
 -1.084   1.008  -0.001   0.000   0.002   0.002   0.000  -0.004
  0.001  -0.001   1.123  -0.002   0.000  -0.800   0.004  -0.001
  0.001   0.000  -0.002   1.123   0.001   0.004  -0.800  -0.003
 -0.003   0.002   0.000   0.001   1.121  -0.001  -0.003  -0.799
 -0.002   0.002  -0.800   0.004  -0.001   0.646  -0.004   0.001
 -0.001   0.000   0.004  -0.800  -0.003  -0.004   0.646   0.003
  0.004  -0.004  -0.001  -0.003  -0.799   0.001   0.003   0.645


----------------------------------------- Iteration    1(  12)  ---------------------------------------


    POTLOK:  cpu time    0.02: real time    0.02
    SETDIJ:  cpu time    0.02: real time    0.02
    EDDIAG:  cpu time    0.02: real time    0.02
  RMM-DIIS:  cpu time    0.05: real time    0.05
    ORTHCH:  cpu time    0.01: real time    0.01
       DOS:  cpu time    0.00: real time    0.00
    CHARGE:  cpu time    0.02: real time    0.02
    MIXING:  cpu time    0.00: real time    0.00
    --------------------------------------------
      LOOP:  cpu time    0.14: real time    0.15

 eigenvalue-minimisations  :   127
 total energy-change (2. order) :-0.6956169E-06  (-0.5476691E-07)
 number of electron      31.9999999 magnetization 
 augmentation part       -1.7274295 magnetization 

 Broyden mixing:
  rms(total) = 0.58979E-04    rms(broyden)= 0.58945E-04
  rms(prec ) = 0.84476E-04
  weight for this iteration     100.00

 eigenvalues of (default mixing * dielectric matrix)
  average eigenvalue GAMMA=   1.9973
  3.2050  2.7369  2.4585  2.0588  1.5630  0.9977  0.9615

 Free energy of the ion-electron system (eV)
  ---------------------------------------------------
  alpha Z        PSCENC =        12.68944982
  Ewald energy   TEWEN  =      -907.56645851
  -1/2 Hartree   DENC   =       -70.83243311
  -exchange  EXHF       =         0.00000000
  -V(xc)+E(xc)   XCENC  =       -72.91082793
  PAW double counting   =       307.74141433     -166.58276658
  entropy T*S    EENTRO =         0.00000000
  eigenvalues    EBANDS =        37.86298411
  atomic energy  EATOM  =       826.37398168
  ---------------------------------------------------
  free energy    TOTEN  =       -33.22465618 eV

  energy without entropy =      -33.22465618  energy(sigma->0) =      -33.22465618


--------------------------------------------------------------------------------------------------------




 average (electrostatic) potential at core
  the test charge radii are     0.9892
  (the norm of the test charge is              1.0000)
       1 -83.2240       2 -83.2282       3 -83.2271       4 -83.2288       5 -83.2280
       6 -83.2277       7 -83.2301       8 -83.2245
 
 
 
 E-fermi :   6.0547     XC(G=0):  -9.1311     alpha+bet :-11.7379


 k-point   1 :       0.0000    0.0000    0.0000
  band No.  band energies     occupation 
      1      -5.9500      2.00000
      2      -1.8768      2.00000
      3      -1.8746      2.00000
      4      -1.8668      2.00000
      5      -1.8640      2.00000
      6      -1.8610      2.00000
      7      -1.8465      2.00000
      8       3.0445      2.00000
      9       3.0475      2.00000
     10       3.0490      2.00000
     11       3.0512      2.00000
     12       3.0528      2.00000
[...]
    MIXING:  cpu time    0.00: real time    0.00
    --------------------------------------------
      LOOP:  cpu time    0.16: real time    0.16

 Broyden mixing:
  rms(total) = 0.70867E-02    rms(broyden)= 0.70863E-02
  rms(prec ) = 0.12164E-01
  weight for this iteration     100.00

 eigenvalues of (default mixing * dielectric matrix)
  average eigenvalue GAMMA=   2.0733
  3.0281  2.4857  1.1228  1.6567

 Free energy of the ion-electron system (eV)
  ---------------------------------------------------
  -1/2 Hartree   DENC   =        -4.61514362
  -V(xc)+E(xc)   XCENC  =         0.94974170
  PAW double counting   =         3.10211371       -3.15150293
  entropy T*S    EENTRO =         0.00000000
  eigenvalues    EBANDS =       -24.52838479
  ---------------------------------------------------
  free energy    TOTEN  =       -28.24317594 eV

  energy without entropy =      -28.24317594


----------------------------------------- Iteration    3(   7)  ---------------------------------------


   POT+DIJ:  cpu time    0.08: real time    0.08
    HAMIL1:  cpu time    0.00: real time    0.01
    LRDIAG:  cpu time    0.01: real time    0.01
    LRDIIS:  cpu time    0.02: real time    0.02
    LRDIAG:  cpu time    0.01: real time    0.01
    MIXING:  cpu time    0.00: real time    0.00
    --------------------------------------------
      LOOP:  cpu time    0.15: real time    0.16

 Broyden mixing:
  rms(total) = 0.54285E-03    rms(broyden)= 0.54194E-03
  rms(prec ) = 0.10248E-02
  weight for this iteration     100.00

 eigenvalues of (default mixing * dielectric matrix)
  average eigenvalue GAMMA=   1.9596
  3.0914  2.4093  1.1164  1.6732  1.5075

 Free energy of the ion-electron system (eV)
  ---------------------------------------------------
  -1/2 Hartree   DENC   =        -4.62704533
  -V(xc)+E(xc)   XCENC  =         0.95745697
  PAW double counting   =         3.06486854       -3.11369865
  entropy T*S    EENTRO =         0.00000000
  eigenvalues    EBANDS =       -24.56466962
  ---------------------------------------------------
  free energy    TOTEN  =       -28.28308809 eV

  energy without entropy =      -28.28308809


----------------------------------------- Iteration    3(   8)  ---------------------------------------


   POT+DIJ:  cpu time    0.08: real time    0.08
    HAMIL1:  cpu time    0.00: real time    0.01
    LRDIAG:  cpu time    0.01: real time    0.01
    LRDIIS:  cpu time    0.03: real time    0.03
    LRDIAG:  cpu time    0.01: real time    0.01
    MIXING:  cpu time    0.00: real time    0.00
    --------------------------------------------
      LOOP:  cpu time    0.16: real time    0.16

 Broyden mixing:
  rms(total) = 0.27779E-03    rms(broyden)= 0.27772E-03
  rms(prec ) = 0.41066E-03
  weight for this iteration     100.00

 eigenvalues of (default mixing * dielectric matrix)
  average eigenvalue GAMMA=   1.9118
  3.0870  2.4718  2.0538  1.6650  1.1274  1.0658

 Free energy of the ion-electron system (eV)
  ---------------------------------------------------
  -1/2 Hartree   DENC   =        -4.63061025
  -V(xc)+E(xc)   XCENC  =         0.95839368
  PAW double counting   =         3.06875972       -3.11765506
  entropy T*S    EENTRO =         0.00000000
  eigenvalues    EBANDS =       -24.56570637
  ---------------------------------------------------
  free energy    TOTEN  =       -28.28681828 eV

  energy without entropy =      -28.28681828


----------------------------------------- Iteration    3(   9)  ---------------------------------------


   POT+DIJ:  cpu time    0.08: real time    0.08
    HAMIL1:  cpu time    0.00: real time    0.01
    LRDIAG:  cpu time    0.01: real time    0.01
    LRDIIS:  cpu time    0.02: real time    0.02
    LRDIAG:  cpu time    0.01: real time    0.01
    MIXING:  cpu time    0.00: real time    0.00
    --------------------------------------------
      LOOP:  cpu time    0.16: real time    0.16

 Broyden mixing:
  rms(total) = 0.10273E-03    rms(broyden)= 0.10271E-03
  rms(prec ) = 0.15592E-03
  weight for this iteration     100.00

 eigenvalues of (default mixing * dielectric matrix)
  average eigenvalue GAMMA=   1.8929
  3.1739  2.7370  2.3969  1.6759  1.2731  1.1045  0.8892

 Free energy of the ion-electron system (eV)
  ---------------------------------------------------
  -1/2 Hartree   DENC   =        -4.63029546
  -V(xc)+E(xc)   XCENC  =         0.95833130
  PAW double counting   =         3.07089510       -3.11982727
  entropy T*S    EENTRO =         0.00000000
  eigenvalues    EBANDS =       -24.56596798
  ---------------------------------------------------
  free energy    TOTEN  =       -28.28686430 eV

  energy without entropy =      -28.28686430


----------------------------------------- Iteration    3(  10)  ---------------------------------------


   POT+DIJ:  cpu time    0.08: real time    0.08
    HAMIL1:  cpu time    0.01: real time    0.01
    LRDIAG:  cpu time    0.01: real time    0.01
    LRDIIS:  cpu time    0.02: real time    0.02
    LRDIAG:  cpu time    0.01: real time    0.01
    MIXING:  cpu time    0.00: real time    0.00
    --------------------------------------------
      LOOP:  cpu time    0.16: real time    0.16

 Broyden mixing:
  rms(total) = 0.15403E-04    rms(broyden)= 0.15392E-04
  rms(prec ) = 0.25201E-04
  weight for this iteration     100.00

 eigenvalues of (default mixing * dielectric matrix)
  average eigenvalue GAMMA=   1.8354
  3.1945  2.7683  2.4458  1.6721  1.4342  0.9818  1.1214  1.0652

 Free energy of the ion-electron system (eV)
  ---------------------------------------------------
  -1/2 Hartree   DENC   =        -4.63037330
  -V(xc)+E(xc)   XCENC  =         0.95837225
  PAW double counting   =         3.07200383       -3.12095537
  entropy T*S    EENTRO =         0.00000000
  eigenvalues    EBANDS =       -24.56622335
  ---------------------------------------------------
  free energy    TOTEN  =       -28.28717593 eV

  energy without entropy =      -28.28717593


----------------------------------------- Iteration    3(  11)  ---------------------------------------


   POT+DIJ:  cpu time    0.09: real time    0.09
    HAMIL1:  cpu time    0.00: real time    0.01
    LRDIAG:  cpu time    0.01: real time    0.01
    LRDIIS:  cpu time    0.02: real time    0.02
    LRDIAG:  cpu time    0.01: real time    0.01
    MIXING:  cpu time    0.00: real time    0.00
    --------------------------------------------
      LOOP:  cpu time    0.17: real time    0.17

 Broyden mixing:
  rms(total) = 0.38941E-05    rms(broyden)= 0.38919E-05
  rms(prec ) = 0.57437E-05
  weight for this iteration     100.00

 eigenvalues of (default mixing * dielectric matrix)
  average eigenvalue GAMMA=   1.8683
  3.2017  2.7890  2.4483  2.1881  1.6735  1.4027  1.1098  1.0007  1.0007

 Free energy of the ion-electron system (eV)
  ---------------------------------------------------
  -1/2 Hartree   DENC   =        -4.63038301
  -V(xc)+E(xc)   XCENC  =         0.95836962
  PAW double counting   =         3.07209666       -3.12104974
  entropy T*S    EENTRO =         0.00000000
  eigenvalues    EBANDS =       -24.56620478
  ---------------------------------------------------
  free energy    TOTEN  =       -28.28717124 eV

  energy without entropy =      -28.28717124


----------------------------------------- Iteration    3(  12)  ---------------------------------------


   POT+DIJ:  cpu time    0.08: real time    0.08
    HAMIL1:  cpu time    0.00: real time    0.01
    LRDIAG:  cpu time    0.01: real time    0.01
    LRDIIS:  cpu time    0.02: real time    0.03
    LRDIAG:  cpu time    0.01: real time    0.01
    MIXING:  cpu time    0.00: real time    0.00
    --------------------------------------------
      LOOP:  cpu time    0.16: real time    0.17

 Broyden mixing:
  rms(total) = 0.12500E-05    rms(broyden)= 0.12495E-05
  rms(prec ) = 0.18053E-05
  weight for this iteration     100.00

 eigenvalues of (default mixing * dielectric matrix)
  average eigenvalue GAMMA=   1.8415
  3.2042  2.7982  2.4413  2.4413  1.6715  1.3696  1.3696  1.0052  1.0052  1.1088

 Free energy of the ion-electron system (eV)
  ---------------------------------------------------
  -1/2 Hartree   DENC   =        -4.63038396
  -V(xc)+E(xc)   XCENC  =         0.95836959
  PAW double counting   =         3.07202509       -3.12097692
  entropy T*S    EENTRO =         0.00000000
  eigenvalues    EBANDS =       -24.56620616
  ---------------------------------------------------
  free energy    TOTEN  =       -28.28717236 eV

  energy without entropy =      -28.28717236


----------------------------------------- Iteration    3(  13)  ---------------------------------------


   POT+DIJ:  cpu time    0.08: real time    0.08
    HAMIL1:  cpu time    0.00: real time    0.01
    LRDIAG:  cpu time    0.01: real time    0.01
    LRDIIS:  cpu time    0.02: real time    0.02
    LRDIAG:  cpu time    0.01: real time    0.01
    MIXING:  cpu time    0.00: real time    0.00
    --------------------------------------------
      LOOP:  cpu time    0.16: real time    0.16

 Broyden mixing:
  rms(total) = 0.36296E-06    rms(broyden)= 0.36288E-06
  rms(prec ) = 0.62049E-06
  weight for this iteration     100.00

 eigenvalues of (default mixing * dielectric matrix)
  average eigenvalue GAMMA=   1.8158
  3.2069  2.8316  2.4468  2.5998  1.6679  1.6986  1.3433  1.1190  0.9940  1.0327
  1.0327

 Free energy of the ion-electron system (eV)
  ---------------------------------------------------
  -1/2 Hartree   DENC   =        -4.63038493
  -V(xc)+E(xc)   XCENC  =         0.95836969
  PAW double counting   =         3.07200128       -3.12095269
  entropy T*S    EENTRO =         0.00000000
  eigenvalues    EBANDS =       -24.56620610
  ---------------------------------------------------
  free energy    TOTEN  =       -28.28717275 eV

  energy without entropy =      -28.28717275


------------------------ aborting loop because EDIFF is reached ----------------------------------------


 change of polarisation eV/A/(eV/A) component  3 :    -0.301     0.267    50.534
 dielectric tensor                  component  3 :    -0.332     0.296    56.871


--------------------------------------------------------------------------------------------------------


    FORLOC:  cpu time    0.00: real time    0.00
    FORNL :  cpu time    0.09: real time    0.10
    STRESS:  cpu time    0.30: real time    0.31
    FORCOR:  cpu time    0.02: real time    0.02
    FORLOC:  cpu time    0.00: real time    0.00
    FORNL :  cpu time    0.10: real time    0.10
    STRESS:  cpu time    0.31: real time    0.31
    FORCOR:  cpu time    0.02: real time    0.02
    FORNLD:  cpu time    0.01: real time    0.01

 PIEZOELECTRIC TENSOR FIELD DIRECTION 3  (e Angst)
 -----------------------------------------------------------------------------
    -0.00308 -0.00171  0.00441           ( -0.00001  0.00001  0.00000)
    -0.00171  0.00202  0.00272           (  0.00001 -0.00001  0.00001)
     0.00441  0.00272  0.00636           (  0.00000  0.00001  0.00000)

 PIEZOELECTRIC TENSOR FIELD DIRECTION 3  (C/m^2)
 -----------------------------------------------------------------------------
    -0.00030 -0.00017  0.00043
    -0.00017  0.00020  0.00027
     0.00043  0.00027  0.00062


      POSITION         DIRECTION 3           BORN EFFECTIVE CHARGE    (rigid.aug.   ionic)
 -----------------------------------------------------------------------------------------
      5.46764      0.00363      0.00155    -0.03215  0.10215 -5.86005 (  0.21590  4.00000)
      1.37113      1.36905      1.36942    -0.04797 -0.08282 -5.74760 (  0.21594  4.00000)
      2.73655      2.73692      5.46908     0.08818 -0.17844 -5.79850 (  0.21593  4.00000)
      4.10442      4.10158      1.36832    -0.04387  0.02059 -5.73455 (  0.21594  4.00000)
      2.73408      0.00082      2.73422     0.05416  0.16478 -5.74040 (  0.21593  4.00000)
      4.10332      1.36672      4.10242     0.05842 -0.02929 -5.78330 (  0.21593  4.00000)
      5.46922      2.73492      2.73146    -0.07041 -0.12215 -5.70592 (  0.21595  4.00000)
      1.36742      4.09896      4.09821     0.06681  0.05796 -5.84238 (  0.21590  4.00000)
 -----------------------------------------------------------------------------------------
    total drift (improves with k-points):   0.07318 -0.06723-46.21270




--------------------------------------------------------------------------------------------------------


  LATTYP: Found a simple cubic cell.
 ALAT       =     5.4700000000
  
  Lattice vectors:
  
 A1 = (   5.4700000000,   0.0000000000,   0.0000000000)
 A2 = (   0.0000000000,   5.4700000000,   0.0000000000)
 A3 = (   0.0000000000,   0.0000000000,   5.4700000000)


Analysis of symmetry for initial positions (statically):
=====================================================================
 Subroutine PRICEL returns:
 Original cell was already a primitive cell.
 

 Routine SETGRP: Setting up the symmetry group for a 
 simple cubic supercell.


 Subroutine GETGRP returns: Found  1 space group operations
 (whereof  1 operations were pure point group operations)
 out of a pool of 48 trial point group operations.


The static configuration has the point symmetry C_1 .


Analysis of symmetry for dynamics (positions and initial velocities):
=====================================================================
 Subroutine PRICEL returns:
 Original cell was already a primitive cell.
 

 Routine SETGRP: Setting up the symmetry group for a 
 simple cubic supercell.


 Subroutine GETGRP returns: Found  1 space group operations
 (whereof  1 operations were pure point group operations)
 out of a pool of 48 trial point group operations.


The dynamic configuration has the point symmetry C_1 .


 MACROSCOPIC STATIC DIELECTRIC TENSOR (including local field effects in DFT)
 ------------------------------------------------------
          56.866359     0.065394    -0.332414
           0.065397    56.870036     0.295717
          -0.332417     0.295715    56.870694
 ------------------------------------------------------



--------------------------------------------------------------------------------------------------------


  LATTYP: Found a simple cubic cell.
 ALAT       =     5.4700000000
  
  Lattice vectors:
  
 A1 = (   5.4700000000,   0.0000000000,   0.0000000000)
 A2 = (   0.0000000000,   5.4700000000,   0.0000000000)
 A3 = (   0.0000000000,   0.0000000000,   5.4700000000)


Analysis of symmetry for initial positions (statically):
=====================================================================
 Subroutine PRICEL returns:
 Original cell was already a primitive cell.
 

 Routine SETGRP: Setting up the symmetry group for a 
 simple cubic supercell.


 Subroutine GETGRP returns: Found  1 space group operations
 (whereof  1 operations were pure point group operations)
 out of a pool of 48 trial point group operations.


The static configuration has the point symmetry C_1 .


Analysis of symmetry for dynamics (positions and initial velocities):
=====================================================================
 Subroutine PRICEL returns:
 Original cell was already a primitive cell.
 

 Routine SETGRP: Setting up the symmetry group for a 
 simple cubic supercell.


 Subroutine GETGRP returns: Found  1 space group operations
 (whereof  1 operations were pure point group operations)
 out of a pool of 48 trial point group operations.


The dynamic configuration has the point symmetry C_1 .
 
 KPOINTS: Automatic mesh                          

Automatic generation of k-mesh.
Space group operators:
 irot       det(A)        alpha          n_x          n_y          n_z        tau_x        tau_y        tau_z
    1     1.000000     0.000001     1.000000     0.000000     0.000000     0.000000     0.000000     0.000000
 
 Subroutine IBZKPT returns following result:
 ===========================================
 
 Found      1 irreducible k-points:
 
 Following reciprocal coordinates:
            Coordinates               Weight
  0.000000  0.000000  0.000000      1.000000
 
 Following cartesian coordinates:
            Coordinates               Weight
  0.000000  0.000000  0.000000      1.000000
 


--------------------------------------------------------------------------------------------------------




 MACROSCOPIC STATIC DIELECTRIC TENSOR (including local field effects in DFT)
 ------------------------------------------------------
          56.866359     0.065394    -0.332414
           0.065397    56.870036     0.295717
          -0.332417     0.295715    56.870694
 ------------------------------------------------------


 PIEZOELECTRIC TENSOR  for field in x, y, z        (e  Angst)
          XX          YY          ZZ          XY          YZ          ZX
  --------------------------------------------------------------------------------
  x     0.00335    -0.00657    -0.00333     0.00457     0.00108     0.00269
  y     0.00207     0.00892     0.00006     0.00306     0.00367     0.00018
  z    -0.00308     0.00202     0.00636    -0.00171     0.00272     0.00441

 PIEZOELECTRIC TENSOR  for field in x, y, z        (C/m^2)
          XX          YY          ZZ          XY          YZ          ZX
  --------------------------------------------------------------------------------
  x     0.00033    -0.00064    -0.00033     0.00045     0.00011     0.00026
  y     0.00020     0.00087     0.00001     0.00030     0.00036     0.00002
  z    -0.00030     0.00020     0.00062    -0.00017     0.00027     0.00043
 
 BORN EFFECTIVE CHARGES (in e, cummulative output)
 -------------------------------------------------
 ion    1
    1    -5.83528    -0.02777     0.06216
    2     0.05316    -5.85245    -0.04416
    3    -0.03215     0.10215    -5.86005
 ion    2
    1    -5.77365     0.18161     0.05896
    2    -0.16633    -5.75412    -0.00733
    3    -0.04797    -0.08282    -5.74760
 ion    3
    1    -5.77982     0.02881    -0.01747
    2    -0.04859    -5.76541     0.16105
    3     0.08818    -0.17844    -5.79850
 ion    4
    1    -5.73868    -0.18849     0.06205
    2     0.15525    -5.75441    -0.03071
    3    -0.04387     0.02059    -5.73455
 ion    5
    1    -5.76638    -0.02870    -0.04113
    2     0.04070    -5.77483    -0.17593
    3     0.05416     0.16478    -5.74040
 ion    6
    1    -5.76017     0.08791    -0.04912
    2    -0.04767    -5.76507     0.02208
    3     0.05842    -0.02929    -5.78330
 ion    7
    1    -5.72279     0.02349     0.03810
    2    -0.04866    -5.71441     0.02363
    3    -0.07041    -0.12215    -5.70592
 ion    8
    1    -5.83739    -0.08915    -0.04037
    2     0.04970    -5.83441    -0.01596
    3     0.06681     0.05796    -5.84238


--------------------------------------------------------------------------------------------------------


     LOOP+:  cpu time   20.78: real time   21.19
    4ORBIT:  cpu time    0.00: real time    0.00

 total amount of memory used by VASP on root node    32224. kBytes
========================================================================

   base      :      30000. kBytes
   nonl-proj :        202. kBytes
   fftplans  :        782. kBytes
   grid      :       1198. kBytes
   one-center:         24. kBytes
   wavefun   :         18. kBytes
 
  
  
 General timing and accounting informations for this job:
 ========================================================
  
                  Total CPU time used (sec):       22.821
                            User time (sec):       17.156
                          System time (sec):        5.664
                         Elapsed time (sec):       25.789
  
                   Maximum memory used (kb):       74748.
                   Average memory used (kb):           0.
  
                          Minor page faults:       204422
                          Major page faults:            0
                 Voluntary context switches:         1521
