 vasp.5.3.3 18Dez12 (build Jan  9 2014 12:00:49) complex                        
  
 executed on             LinuxIFC date 2014.01.29  10:13:43
 running on   48 total cores
 distrk:  each k-point on   48 cores,    1 groups
 distr:  one band on NCORES_PER_BAND=   1 cores,   48 groups


--------------------------------------------------------------------------------------------------------


 INCAR:
 POTCAR:    PAW Si                                

 ----------------------------------------------------------------------------- 
|                                                                             |
|           W    W    AA    RRRRR   N    N  II  N    N   GGGG   !!!           |
|           W    W   A  A   R    R  NN   N  II  NN   N  G    G  !!!           |
|           W    W  A    A  R    R  N N  N  II  N N  N  G       !!!           |
|           W WW W  AAAAAA  RRRRR   N  N N  II  N  N N  G  GGG   !            |
|           WW  WW  A    A  R   R   N   NN  II  N   NN  G    G                |
|           W    W  A    A  R    R  N    N  II  N    N   GGGG   !!!           |
|                                                                             |
|      For optimal performance we recommend that you set                      |
|        NPAR = 4 - approx SQRT( number of cores)                             |
|      (number of cores/NPAR must be integer)                                 |
|      This setting will greatly improve the performance of VASP for DFT.     |
|      The default NPAR=number of cores might be grossly inefficient          |
|      on modern multi-core architectures or massively parallel machines.     |
|      Do your own testing.                                                   |
|      Unfortunately you need to use the default for hybrid, GW and RPA       |
|      calculations.                                                          |
|                                                                             |
 ----------------------------------------------------------------------------- 

 POTCAR:    PAW Si                                
   VRHFIN =Si: s2p2                                                             
   LEXCH  = 91                                                                  
   EATOM  =   103.3076 eV,    7.5929 Ry                                         
                                                                                
   TITEL  = PAW Si                                                              
   LULTRA =        F    use ultrasoft PP ?                                      
   IUNSCR =        1    unscreen: 0-lin 1-nonlin 2-no                           
   RPACOR =    1.500    partial core radius                                     
   POMASS =   28.085; ZVAL   =    4.000    mass and valenz                      
   RCORE  =    1.900    outmost cutoff radius                                   
   RWIGS  =    2.480; RWIGS  =    1.312    wigner-seitz radius (au A)           
   ENMAX  =  245.435; ENMIN  =  184.076 eV                                      
   ICORE  =        2    local potential                                         
   LCOR   =        T    correct aug charges                                     
   LPAW   =        T    paw PP                                                  
   EAUG   =  322.069                                                            
   DEXC   =    -.001                                                            
   RMAX   =    2.943    core radius for proj-oper                               
   RAUG   =    1.300    factor for augmentation sphere                          
   RDEP   =    1.993    core radius for depl-charge                             
   QCUT   =   -4.247; QGAM   =    8.494    optimization parameters              
                                                                                
   Description                                                                  
     l     E      TYP  RCUT    TYP  RCUT                                        
     0   .000     23  1.900                                                     
     0   .000     23  1.900                                                     
     1   .000     23  1.900                                                     
     1   .000     23  1.900                                                     
     2   .000      7  1.900                                                     
  local pseudopotential read in
  partial core-charges read in
  atomic valenz-charges read in
  non local Contribution for L=           0  read in
    real space projection operators read in
  non local Contribution for L=           0  read in
    real space projection operators read in
  non local Contribution for L=           1  read in
    real space projection operators read in
  non local Contribution for L=           1  read in
    real space projection operators read in
    PAW grid and wavefunctions read in
 
   number of l-projection  operators is LMAX  =           4
   number of lm-projection operators is LMMAX =           8
 
  PAW Si                                :
 energy of atom  1       EATOM= -103.3076
 kinetic energy error for atom=    0.0109 (will be added to EATOM!!)
 
 
 POSCAR: OUTCAR.0024.-1.out 1.0e-02              
  positions in cartesian coordinates
  No initial velocities read in
 exchange correlation table for  LEXCH =        7
   RHO(1)=    0.500       N(1)  =     2000
   RHO(2)=  100.500       N(2)  =     4000

 VTST: version 3.0c, (01/09/14)

 CHAIN: initializing optimizer
 
 OPT: Using VASP Dynamics algorithm
 CHAIN: Read ICHAIN            0
 
 POSCAR: OUTCAR.0024.-1.out 1.0e-02              
  positions in cartesian coordinates
  No initial velocities read in
 


--------------------------------------------------------------------------------------------------------


 ion  position               nearest neighbor table
   1  0.000  0.000  0.000-   2 2.37   8 2.37   4 2.37   6 2.37
   2  0.250  0.250  0.250-   7 2.37   1 2.37   3 2.37   5 2.37
   3  0.500  0.500  0.999-   6 2.37   4 2.37   2 2.37   8 2.37
   4  0.750  0.749  0.250-   3 2.37   7 2.37   1 2.37   5 2.37
   5  0.499  1.000  0.500-   8 2.37   6 2.37   2 2.37   4 2.37
   6  0.750  0.250  0.749-   7 2.37   3 2.37   5 2.37   1 2.37
   7  1.000  0.499  0.500-   6 2.37   2 2.37   8 2.37   4 2.37
   8  0.249  0.750  0.750-   5 2.37   1 2.37   7 2.37   3 2.37
 
  LATTYP: Found a simple cubic cell.
 ALAT       =     5.4700000000
  
  Lattice vectors:
  
 A1 = (   5.4700000000,   0.0000000000,   0.0000000000)
 A2 = (   0.0000000000,   5.4700000000,   0.0000000000)
 A3 = (   0.0000000000,   0.0000000000,   5.4700000000)


Analysis of symmetry for initial positions (statically):
=====================================================================
 Subroutine PRICEL returns:
 Original cell was already a primitive cell.
 

 Routine SETGRP: Setting up the symmetry group for a 
 simple cubic supercell.


 Subroutine GETGRP returns: Found  1 space group operations
 (whereof  1 operations were pure point group operations)
 out of a pool of 48 trial point group operations.


The static configuration has the point symmetry C_1 .


Analysis of symmetry for dynamics (positions and initial velocities):
=====================================================================
 Subroutine PRICEL returns:
 Original cell was already a primitive cell.
 

 Routine SETGRP: Setting up the symmetry group for a 
 simple cubic supercell.


 Subroutine GETGRP returns: Found  1 space group operations
 (whereof  1 operations were pure point group operations)
 out of a pool of 48 trial point group operations.


The dynamic configuration has the point symmetry C_1 .


 irot  :   1
 --------------------------------------------------------------------
 isymop:   1   0   0
           0   1   0
           0   0   1

 gtrans:     0.0000000     0.0000000     0.0000000

 ptrans:     0.0000000     0.0000000     0.0000000
 rotmap:
 (   1->   1)  (   2->   2)  (   3->   3)  (   4->   4)  (   5->   5) 
 (   6->   6)  (   7->   7)  (   8->   8) 
 
 
 KPOINTS: Automatic mesh                          

Automatic generation of k-mesh.
Space group operators:
 irot       det(A)        alpha          n_x          n_y          n_z        tau_x        tau_y        tau_z
    1     1.000000     0.000001     1.000000     0.000000     0.000000     0.000000     0.000000     0.000000
 
 Subroutine IBZKPT returns following result:
 ===========================================
 
 Found      1 irreducible k-points:
 
 Following reciprocal coordinates:
            Coordinates               Weight
  0.000000  0.000000  0.000000      1.000000
 
 Following cartesian coordinates:
            Coordinates               Weight
  0.000000  0.000000  0.000000      1.000000
 
 
 Subroutine IBZKPT_HF returns following result:
 ==============================================
 
 Found      1 k-points in 1st BZ
 the following      1 k-points will be used (e.g. in the exchange kernel)
 Following reciprocal coordinates:   # in IRBZ
  0.000000  0.000000  0.000000       1 t-inv F


--------------------------------------------------------------------------------------------------------




 Dimension of arrays:
   k-points           NKPTS =      1   k-points in BZ     NKDIM =      1   number of bands    NBANDS=     48
   number of dos      NEDOS =    301   number of ions     NIONS =      8
   non local maximal  LDIM  =      4   non local SUM 2l+1 LMDIM =      8
   total plane-waves  NPLWV =  21952
   max r-space proj   IRMAX =      1   max aug-charges    IRDMAX=  36071
   dimension x,y,z NGX =    28 NGY =   28 NGZ =   28
   dimension x,y,z NGXF=    56 NGYF=   56 NGZF=   56
   support grid    NGXF=   112 NGYF=  112 NGZF=  112
   ions per type =               8
 NGX,Y,Z   is equivalent  to a cutoff of   8.51,  8.51,  8.51 a.u.
 NGXF,Y,Z  is equivalent  to a cutoff of  17.02, 17.02, 17.02 a.u.


 I would recommend the setting:
   dimension x,y,z NGX =    19 NGY =   19 NGZ =   19
 SYSTEM =  NAPTHA04                                
 POSCAR =  OUTCAR.0024.-1.out 1.0e-02              

 Startparameter for this run:
   NWRITE =      3    write-flag & timer
   PREC   = normal    normal or accurate (medium, high low for compatibility)
   ISTART =      0    job   : 0-new  1-cont  2-samecut
   ICHARG =      2    charge: 1-file 2-atom 10-const
   ISPIN  =      1    spin polarized calculation?
   LNONCOLLINEAR =      F non collinear calculations
   LSORBIT =      F    spin-orbit coupling
   INIWAV =      1    electr: 0-lowe 1-rand  2-diag
   LASPH  =      F    aspherical Exc in radial PAW
   METAGGA=      F    non-selfconsistent MetaGGA calc.

 Electronic Relaxation 1
   ENCUT  =  200.0 eV  14.70 Ry    3.83 a.u.   6.31  6.31  6.31*2*pi/ulx,y,z
   ENINI  =  200.0     initial cutoff
   ENAUG  =  322.1 eV  augmentation charge cutoff
   NELM   =     60;   NELMIN=  2; NELMDL= -5     # of ELM steps 
   EDIFF  = 0.1E-07   stopping-criterion for ELM
   LREAL  =      F    real-space projection
   NLSPLINE    = F    spline interpolate recip. space projectors
   LCOMPAT=      F    compatible to vasp.4.4
   GGA_COMPAT  = T    GGA compatible to vasp.4.4-vasp.4.6
   LMAXPAW     = -100 max onsite density
   LMAXMIX     =    2 max onsite mixed and CHGCAR
   VOSKOWN=      0    Vosko Wilk Nusair interpolation
   ROPT   =    0.00000
 Ionic relaxation
   EDIFFG = 0.1E-06   stopping-criterion for IOM
   NSW    =      0    number of steps for IOM
   NBLOCK =      1;   KBLOCK =      1    inner block; outer block 
   IBRION =     -1    ionic relax: 0-MD 1-quasi-New 2-CG
   NFREE  =      0    steps in history (QN), initial steepest desc. (CG)
   ISIF   =      2    stress and relaxation
   IWAVPR =     10    prediction:  0-non 1-charg 2-wave 3-comb
   ISYM   =      2    0-nonsym 1-usesym 2-fastsym
   LCORR  =      T    Harris-Foulkes like correction to forces

   POTIM  = 0.5000    time-step for ionic-motion
   TEIN   =    0.0    initial temperature
   TEBEG  =    0.0;   TEEND  =   0.0 temperature during run
   SMASS  =  -3.00    Nose mass-parameter (am)
   estimated Nose-frequenzy (Omega)   =  0.10E-29 period in steps =****** mass=  -0.684E-27a.u.
   SCALEE = 1.0000    scale energy and forces
   NPACO  =    256;   APACO  = 16.0  distance and # of slots for P.C.
   PSTRESS=    0.0 pullay stress

  Mass of Ions in am
   POMASS =  28.09
  Ionic Valenz
   ZVAL   =   4.00
  Atomic Wigner-Seitz radii
   RWIGS  =  -1.00
  virtual crystal weights 
   VCA    =   1.00
   NELECT =      32.0000    total number of electrons
   NUPDOWN=      -1.0000    fix difference up-down

 DOS related values:
   EMIN   =  10.00;   EMAX   =-10.00  energy-range for DOS
   EFERMI =   0.00
   ISMEAR =     0;   SIGMA  =   0.02  broadening in eV -4-tet -1-fermi 0-gaus

 Electronic relaxation 2 (details)
   IALGO  =     68    algorithm
   LDIAG  =      T    sub-space diagonalisation (order eigenvalues)
   LSUBROT=      T    optimize rotation matrix (better conditioning)
   TURBO    =      0    0=normal 1=particle mesh
   IRESTART =      0    0=no restart 2=restart with 2 vectors
   NREBOOT  =      0    no. of reboots
   NMIN     =      0    reboot dimension
   EREF     =   0.00    reference energy to select bands
   IMIX   =      4    mixing-type and parameters
     AMIX     =   0.40;   BMIX     =  1.00
     AMIX_MAG =   1.60;   BMIX_MAG =  1.00
     AMIN     =   0.10
     WC   =   100.;   INIMIX=   1;  MIXPRE=   1;  MAXMIX= -45

 Intra band minimization:
   WEIMIN = 0.0000     energy-eigenvalue tresh-hold
   EBREAK =  0.52E-10  absolut break condition
   DEPER  =   0.30     relativ break condition  

   TIME   =   0.40     timestep for ELM

  volume/ion in A,a.u.               =      20.46       138.06
  Fermi-wavevector in a.u.,A,eV,Ry     =   0.950176  1.795573 12.283814  0.902835
  Thomas-Fermi vector in A             =   2.078528
 
 Write flags
   LWAVE  =      F    write WAVECAR
   LCHARG =      F    write CHGCAR
   LVTOT  =      F    write LOCPOT, total local potential
   LVHAR  =      F    write LOCPOT, Hartree potential only
   LELF   =      F    write electronic localiz. function (ELF)
   LORBIT =      0    0 simple, 1 ext, 2 COOP (PROOUT)


 Dipole corrections
   LMONO  =      F    monopole corrections only (constant potential shift)
   LDIPOL =      F    correct potential (dipole corrections)
   IDIPOL =      0    1-x, 2-y, 3-z, 4-all directions 
   EPSILON=  1.0000000 bulk dielectric constant

 Exchange correlation treatment:
   GGA     =    --    GGA type
   LEXCH   =     7    internal setting for exchange type
   VOSKOWN=      0    Vosko Wilk Nusair interpolation
   LHFCALC =     F    Hartree Fock is set to
   LHFONE  =     F    Hartree Fock one center treatment
   AEXX    =    0.0000 exact exchange contribution

 Linear response parameters
   LEPSILON=     T    determine dielectric tensor
   LRPA    =     F    only Hartree local field effects (RPA)
   LNABLA  =     F    use nabla operator in PAW spheres
   LVEL    =     F    velocity operator in full k-point grid
   LINTERFAST=   F  fast interpolation
   KINTER  =     0    interpolate to denser k-point grid
   CSHIFT  =0.1000    complex shift for real part using Kramers Kronig
   OMEGAMAX=  -1.0    maximum frequency
   DEG_THRESHOLD= 0.2000000E-02 threshold for treating states as degnerate
   RTIME   =    0.100 relaxation time in fs

 Orbital magnetization related:
   ORBITALMAG=     F  switch on orbital magnetization
   LCHIMAG   =     F  perturbation theory with respect to B field
   DQ        =  0.001000  dq finite difference perturbation B field



--------------------------------------------------------------------------------------------------------


 Static calculation
 charge density and potential will be updated during run
 non-spin polarized calculation
 RMM-DIIS sequential band-by-band and
  variant of blocked Davidson during initial phase
 perform sub-space diagonalisation
    before iterative eigenvector-optimisation
 modified Broyden-mixing scheme, WC =      100.0
 initial mixing is a Kerker type mixing with AMIX =  0.4000 and BMIX =      1.0000
 Hartree-type preconditioning will be used
 using additional bands           32
 reciprocal scheme for non local part
 use partial core corrections
 calculate Harris-corrections to forces 
   (improved forces if not selfconsistent)
 use gradient corrections 
 use of overlap-Matrix (Vanderbilt PP)
 Gauss-broadening in eV      SIGMA  =   0.02


--------------------------------------------------------------------------------------------------------


  energy-cutoff  :      200.00
  volume of cell :      163.67
      direct lattice vectors                 reciprocal lattice vectors
     5.470000000  0.000000000  0.000000000     0.182815356  0.000000000  0.000000000
     0.000000000  5.470000000  0.000000000     0.000000000  0.182815356  0.000000000
     0.000000000  0.000000000  5.470000000     0.000000000  0.000000000  0.182815356

  length of vectors
     5.470000000  5.470000000  5.470000000     0.182815356  0.182815356  0.182815356


 
 k-points in units of 2pi/SCALE and weight: Automatic mesh                          
   0.00000000  0.00000000  0.00000000       1.000
 
 k-points in reciprocal lattice and weights: Automatic mesh                          
   0.00000000  0.00000000  0.00000000       1.000
 
 position of ions in fractional coordinates (direct lattice) 
   0.00022117  0.00000047  0.00040138
   0.25000047  0.25040138  0.24972519
   0.50040138  0.49972519  0.99935022
   0.74972519  0.74935022  0.24978530
   0.49935022  0.99978530  0.49997374
   0.74978530  0.24997374  0.74938695
   0.99997374  0.49938695  0.50001931
   0.24938695  0.75001931  0.74978063
 
 position of ions in cartesian coordinates  (Angst):
   0.00120979  0.00000257  0.00219553
   1.36750257  1.36969553  1.36599680
   2.73719553  2.73349680  5.46644569
   4.10099680  4.09894569  1.36632560
   2.73144569  5.46882560  2.73485634
   4.10132560  1.36735634  4.09914663
   5.46985634  2.73164663  2.73510561
   1.36414663  4.10260561  4.10130003
 


--------------------------------------------------------------------------------------------------------


 k-point  1 :   0.0000 0.0000 0.0000  plane waves:    1021

 maximum and minimum number of plane-waves per node :      1021     1021

 maximum number of plane-waves:      1021
 maximum index in each direction: 
   IXMAX=    6   IYMAX=    6   IZMAX=    6
   IXMIN=   -6   IYMIN=   -6   IZMIN=   -6

 NGX is ok and might be reduce to  26
 NGY is ok and might be reduce to  26
 NGZ is ok and might be reduce to  26

 serial   3D FFT for wavefunctions
 parallel 3D FFT for charge:
    minimum data exchange during FFTs selected (reduces bandwidth)


 total amount of memory used by VASP on root node    32224. kBytes
========================================================================

   base      :      30000. kBytes
   nonl-proj :        202. kBytes
   fftplans  :        782. kBytes
   grid      :       1198. kBytes
   one-center:         24. kBytes
   wavefun   :         18. kBytes
 
 Broyden mixing: mesh for mixing (old mesh)
   NGX = 13   NGY = 13   NGZ = 13
  (NGX  = 56   NGY  = 56   NGZ  = 56)
  gives a total of   2197 points

 initial charge density was supplied:
 charge density of overlapping atoms calculated
 number of electron      32.0000000 magnetization 
 keeping initial charge density in first step


--------------------------------------------------------------------------------------------------------


 Maximum index for augmentation-charges         1782 (set IRDMAX)


--------------------------------------------------------------------------------------------------------


 First call to EWALD:  gamma=   0.324
 Maximum number of real-space cells 3x 3x 3
 Maximum number of reciprocal cells 3x 3x 3

 FEWALD executed in parallel
    FEWALD:  cpu time    0.00: real time    0.00


----------------------------------------- Iteration    1(   1)  ---------------------------------------


    POTLOK:  cpu time    0.11: real time    0.21
    SETDIJ:  cpu time    0.09: real time    0.11
     EDDAV:  cpu time    0.66: real time    0.69
       DOS:  cpu time    0.00: real time    0.00
    --------------------------------------------
      LOOP:  cpu time    0.86: real time    1.03

 eigenvalue-minimisations  :    96
 total energy-change (2. order) :-0.1012590E+02  (-0.7955885E+03)
 number of electron      32.0000000 magnetization 
 augmentation part       32.0000000 magnetization 

 Free energy of the ion-electron system (eV)
  ---------------------------------------------------
  alpha Z        PSCENC =        12.68944982
  Ewald energy   TEWEN  =      -907.56782891
  -1/2 Hartree   DENC   =       -45.63582033
  -exchange  EXHF       =         0.00000000
  -V(xc)+E(xc)   XCENC  =       -76.79673458
  PAW double counting   =       265.93453375     -123.69690146
  entropy T*S    EENTRO =        -0.00034986
  eigenvalues    EBANDS =        38.57377465
  atomic energy  EATOM  =       826.37398168
  ---------------------------------------------------
  free energy    TOTEN  =       -10.12589525 eV

  energy without entropy =      -10.12554539  energy(sigma->0) =      -10.12572032


--------------------------------------------------------------------------------------------------------




 average (electrostatic) potential at core
  the test charge radii are     0.9892
  (the norm of the test charge is              1.0000)
       1 -84.3475       2 -84.3528       3 -84.3520       4 -84.3472       5 -84.3486
       6 -84.3518       7 -84.3543       8 -84.3506
 
 
 
 E-fermi :   6.6063     XC(G=0):  -9.5533     alpha+bet :-11.7379


 k-point   1 :       0.0000    0.0000    0.0000
  band No.  band energies     occupation 
      1      -6.5895      2.00000
      2      -2.4096      2.00000
      3      -2.2541      2.00000
      4      -2.1247      2.00000
      5      -2.0284      2.00000
      6      -1.8703      2.00000
      7      -1.6812      2.00000
      8       2.7428      2.00000
      9       2.8512      2.00000
     10       2.9944      2.00000
     11       3.1604      2.00000
     12       3.3429      2.00000
     13       4.0735      2.00000
     14       6.1458      2.00000
     15       6.3679      2.00000
     16       6.5655      1.99611
     17       6.6472      0.00389
     18       6.8082      0.00000
     19       6.9074      0.00000
     20       7.1732      0.00000
     21       7.3731      0.00000
     22       8.0463      0.00000
     23       8.9809      0.00000
     24       9.3767      0.00000
     25      10.4508      0.00000
     26      11.4520      0.00000
     27      13.5071      0.00000
     28      14.7716      0.00000
     29      16.5596      0.00000
     30      16.8976      0.00000
     31      17.3563      0.00000
     32      17.5967      0.00000
     33      17.9350      0.00000
     34      18.1307      0.00000
     35      18.4951      0.00000
     36      18.8774      0.00000
     37      19.3660      0.00000
     38      19.5100      0.00000
     39      19.8549      0.00000
     40      20.2516      0.00000
     41      21.0966      0.00000
     42      21.6833      0.00000
     43      22.1756      0.00000
     44      22.7637      0.00000
     45      23.9083      0.00000
     46      24.4014      0.00000
     47      24.8066      0.00000
     48      25.8336      0.00000


--------------------------------------------------------------------------------------------------------


 soft charge-density along one line, spin component           1
         0         1         2         3         4         5         6         7         8         9
 total charge-density along one line
 
 pseudopotential strength for first ion, spin component:           1
 18.662   0.000   0.000   0.000   0.000   0.000   0.000   0.000
  0.000   0.006   0.000   0.000   0.000   0.000   0.000   0.000
  0.000   0.000   4.216   0.000   0.000  -0.004   0.000   0.000
  0.000   0.000   0.000   4.216   0.000   0.000  -0.004   0.000
  0.000   0.000   0.000   0.000   4.216   0.000   0.000  -0.004
  0.000   0.000  -0.004   0.000   0.000   0.005   0.000   0.000
  0.000   0.000   0.000  -0.004   0.000   0.000   0.005   0.000
  0.000   0.000   0.000   0.000  -0.004   0.000   0.000   0.005
 total augmentation occupancy for first ion, spin component:           1
  2.000   0.000   0.000   0.000   0.000   0.000   0.000   0.000
  0.000   0.000   0.000   0.000   0.000   0.000   0.000   0.000
  0.000   0.000   0.667   0.000   0.000   0.000   0.000   0.000
  0.000   0.000   0.000   0.667   0.000   0.000   0.000   0.000
  0.000   0.000   0.000   0.000   0.667   0.000   0.000   0.000
  0.000   0.000   0.000   0.000   0.000   0.000   0.000   0.000
  0.000   0.000   0.000   0.000   0.000   0.000   0.000   0.000
  0.000   0.000   0.000   0.000   0.000   0.000   0.000   0.000


----------------------------------------- Iteration    1(   2)  ---------------------------------------


     EDDAV:  cpu time    0.97: real time    0.97
       DOS:  cpu time    0.00: real time    0.00
    --------------------------------------------
      LOOP:  cpu time    0.98: real time    0.98

 eigenvalue-minimisations  :   144
 total energy-change (2. order) :-0.2432465E+02  (-0.2432089E+02)
 number of electron      32.0000000 magnetization 
 augmentation part       32.0000000 magnetization 

 Free energy of the ion-electron system (eV)
  ---------------------------------------------------
  alpha Z        PSCENC =        12.68944982
  Ewald energy   TEWEN  =      -907.56782891
  -1/2 Hartree   DENC   =       -45.63582033
  -exchange  EXHF       =         0.00000000
  -V(xc)+E(xc)   XCENC  =       -76.79673458
  PAW double counting   =       265.93453375     -123.69690146
  entropy T*S    EENTRO =         0.00000000
  eigenvalues    EBANDS =        14.24877173
  atomic energy  EATOM  =       826.37398168
  ---------------------------------------------------
  free energy    TOTEN  =       -34.45054830 eV

  energy without entropy =      -34.45054830  energy(sigma->0) =      -34.45054830


--------------------------------------------------------------------------------------------------------




 average (electrostatic) potential at core
  the test charge radii are     0.9892
  (the norm of the test charge is              1.0000)
       1 -84.3475       2 -84.3528       3 -84.3520       4 -84.3472       5 -84.3486
       6 -84.3518       7 -84.3543       8 -84.3506
 
 
 
 E-fermi :   5.2489     XC(G=0):  -9.5533     alpha+bet :-11.7379


 k-point   1 :       0.0000    0.0000    0.0000
  band No.  band energies     occupation 
      1      -6.6371      2.00000
      2      -2.6406      2.00000
      3      -2.6372      2.00000
      4      -2.6339      2.00000
      5      -2.6276      2.00000
      6      -2.6190      2.00000
      7      -2.6167      2.00000
      8       2.3753      2.00000
      9       2.3778      2.00000
     10       2.3799      2.00000
     11       2.3846      2.00000
     12       2.3873      2.00000
     13       2.3911      2.00000
     14       5.0694      2.00000
     15       5.0788      2.00000
     16       5.0922      2.00000
     17       6.1489      0.00000
     18       6.1494      0.00000
     19       6.1554      0.00000
     20       6.1594      0.00000
     21       6.1619      0.00000
     22       6.1648      0.00000
     23       7.8488      0.00000
     24       7.8585      0.00000
     25       7.8643      0.00000
     26       8.1266      0.00000
     27      13.2004      0.00000
     28      13.2624      0.00000
     29      13.2698      0.00000
     30      15.1000      0.00000
     31      15.1331      0.00000
     32      15.1716      0.00000
     33      15.2502      0.00000
     34      15.3118      0.00000
     35      15.6352      0.00000
     36      16.3805      0.00000
     37      16.4216      0.00000
     38      16.4473      0.00000
     39      16.5383      0.00000
     40      16.7177      0.00000
     41      16.7540      0.00000
     42      16.7671      0.00000
     43      16.8689      0.00000
     44      17.2218      0.00000
     45      17.9107      0.00000
     46      17.9633      0.00000
     47      17.9878      0.00000
     48      18.0163      0.00000


--------------------------------------------------------------------------------------------------------


 soft charge-density along one line, spin component           1
         0         1         2         3         4         5         6         7         8         9
 total charge-density along one line
 
 pseudopotential strength for first ion, spin component:           1
 18.662   0.000   0.000   0.000   0.000   0.000   0.000   0.000
  0.000   0.006   0.000   0.000   0.000   0.000   0.000   0.000
  0.000   0.000   4.216   0.000   0.000  -0.004   0.000   0.000
  0.000   0.000   0.000   4.216   0.000   0.000  -0.004   0.000
  0.000   0.000   0.000   0.000   4.216   0.000   0.000  -0.004
  0.000   0.000  -0.004   0.000   0.000   0.005   0.000   0.000
  0.000   0.000   0.000  -0.004   0.000   0.000   0.005   0.000
  0.000   0.000   0.000   0.000  -0.004   0.000   0.000   0.005
 total augmentation occupancy for first ion, spin component:           1
  2.000   0.000   0.000   0.000   0.000   0.000   0.000   0.000
  0.000   0.000   0.000   0.000   0.000   0.000   0.000   0.000
  0.000   0.000   0.667   0.000   0.000   0.000   0.000   0.000
  0.000   0.000   0.000   0.667   0.000   0.000   0.000   0.000
  0.000   0.000   0.000   0.000   0.667   0.000   0.000   0.000
  0.000   0.000   0.000   0.000   0.000   0.000   0.000   0.000
  0.000   0.000   0.000   0.000   0.000   0.000   0.000   0.000
  0.000   0.000   0.000   0.000   0.000   0.000   0.000   0.000


----------------------------------------- Iteration    1(   3)  ---------------------------------------


     EDDAV:  cpu time    0.39: real time    0.39
       DOS:  cpu time    0.00: real time    0.00
    --------------------------------------------
      LOOP:  cpu time    0.39: real time    0.40

 eigenvalue-minimisations  :    96
 total energy-change (2. order) :-0.1671900E+00  (-0.1671900E+00)
 number of electron      32.0000000 magnetization 
 augmentation part       32.0000000 magnetization 

 Free energy of the ion-electron system (eV)
  ---------------------------------------------------
  alpha Z        PSCENC =        12.68944982
  Ewald energy   TEWEN  =      -907.56782891
  -1/2 Hartree   DENC   =       -45.63582033
  -exchange  EXHF       =         0.00000000
  -V(xc)+E(xc)   XCENC  =       -76.79673458
  PAW double counting   =       265.93453375     -123.69690146
  entropy T*S    EENTRO =         0.00000000
  eigenvalues    EBANDS =        14.08158177
  atomic energy  EATOM  =       826.37398168
  ---------------------------------------------------
  free energy    TOTEN  =       -34.61773826 eV

  energy without entropy =      -34.61773826  energy(sigma->0) =      -34.61773826


--------------------------------------------------------------------------------------------------------




 average (electrostatic) potential at core
  the test charge radii are     0.9892
  (the norm of the test charge is              1.0000)
       1 -84.3475       2 -84.3528       3 -84.3520       4 -84.3472       5 -84.3486
       6 -84.3518       7 -84.3543       8 -84.3506
 
 
 
 E-fermi :   5.2244     XC(G=0):  -9.5533     alpha+bet :-11.7379


 k-point   1 :       0.0000    0.0000    0.0000
  band No.  band energies     occupation 
      1      -6.6372      2.00000
      2      -2.6432      2.00000
      3      -2.6388      2.00000
      4      -2.6355      2.00000
      5      -2.6297      2.00000
      6      -2.6216      2.00000
      7      -2.6192      2.00000
      8       2.3723      2.00000
      9       2.3745      2.00000
     10       2.3749      2.00000
     11       2.3790      2.00000
     12       2.3812      2.00000
     13       2.3842      2.00000
     14       5.0586      2.00000
     15       5.0606      2.00000
     16       5.0807      2.00000
     17       6.1454      0.00000
     18       6.1463      0.00000
     19       6.1512      0.00000
     20       6.1551      0.00000
     21       6.1599      0.00000
     22       6.1614      0.00000
     23       7.8417      0.00000
     24       7.8528      0.00000
     25       7.8540      0.00000
     26       8.1178      0.00000
     27      13.1845      0.00000
     28      13.1867      0.00000
     29      13.2692      0.00000
     30      15.0839      0.00000
     31      15.0887      0.00000
     32      15.0947      0.00000
     33      15.1124      0.00000
     34      15.1266      0.00000
     35      15.1794      0.00000
     36      16.3178      0.00000
     37      16.3297      0.00000
     38      16.3359      0.00000
     39      16.3703      0.00000
     40      16.4322      0.00000
     41      16.4858      0.00000
     42      16.7061      0.00000
     43      16.7208      0.00000
     44      16.8160      0.00000
     45      17.8824      0.00000
     46      17.9000      0.00000
     47      17.9133      0.00000
     48      17.9422      0.00000


--------------------------------------------------------------------------------------------------------


 soft charge-density along one line, spin component           1
         0         1         2         3         4         5         6         7         8         9
 total charge-density along one line
 
 pseudopotential strength for first ion, spin component:           1
 18.662   0.000   0.000   0.000   0.000   0.000   0.000   0.000
  0.000   0.006   0.000   0.000   0.000   0.000   0.000   0.000
  0.000   0.000   4.216   0.000   0.000  -0.004   0.000   0.000
  0.000   0.000   0.000   4.216   0.000   0.000  -0.004   0.000
  0.000   0.000   0.000   0.000   4.216   0.000   0.000  -0.004
  0.000   0.000  -0.004   0.000   0.000   0.005   0.000   0.000
  0.000   0.000   0.000  -0.004   0.000   0.000   0.005   0.000
  0.000   0.000   0.000   0.000  -0.004   0.000   0.000   0.005
 total augmentation occupancy for first ion, spin component:           1
  2.000   0.000   0.000   0.000   0.000   0.000   0.000   0.000
  0.000   0.000   0.000   0.000   0.000   0.000   0.000   0.000
  0.000   0.000   0.667   0.000   0.000   0.000   0.000   0.000
  0.000   0.000   0.000   0.667   0.000   0.000   0.000   0.000
  0.000   0.000   0.000   0.000   0.667   0.000   0.000   0.000
  0.000   0.000   0.000   0.000   0.000   0.000   0.000   0.000
  0.000   0.000   0.000   0.000   0.000   0.000   0.000   0.000
  0.000   0.000   0.000   0.000   0.000   0.000   0.000   0.000


----------------------------------------- Iteration    1(   4)  ---------------------------------------


     EDDAV:  cpu time    2.00: real time    2.00
       DOS:  cpu time    0.00: real time    0.00
    --------------------------------------------
      LOOP:  cpu time    2.00: real time    2.01

 eigenvalue-minimisations  :   192
 total energy-change (2. order) :-0.3543286E-03  (-0.3543286E-03)
 number of electron      32.0000000 magnetization 
 augmentation part       32.0000000 magnetization 

 Free energy of the ion-electron system (eV)
  ---------------------------------------------------
  alpha Z        PSCENC =        12.68944982
  Ewald energy   TEWEN  =      -907.56782891
  -1/2 Hartree   DENC   =       -45.63582033
  -exchange  EXHF       =         0.00000000
  -V(xc)+E(xc)   XCENC  =       -76.79673458
  PAW double counting   =       265.93453375     -123.69690146
  entropy T*S    EENTRO =         0.00000000
  eigenvalues    EBANDS =        14.08122745
  atomic energy  EATOM  =       826.37398168
  ---------------------------------------------------
  free energy    TOTEN  =       -34.61809259 eV

  energy without entropy =      -34.61809259  energy(sigma->0) =      -34.61809259


--------------------------------------------------------------------------------------------------------




 average (electrostatic) potential at core
  the test charge radii are     0.9892
  (the norm of the test charge is              1.0000)
       1 -84.3475       2 -84.3528       3 -84.3520       4 -84.3472       5 -84.3486
       6 -84.3518       7 -84.3543       8 -84.3506
 
 
 
 E-fermi :   5.2007     XC(G=0):  -9.5533     alpha+bet :-11.7379


 k-point   1 :       0.0000    0.0000    0.0000
  band No.  band energies     occupation 
      1      -6.6372      2.00000
      2      -2.6433      2.00000
      3      -2.6388      2.00000
      4      -2.6355      2.00000
      5      -2.6297      2.00000
      6      -2.6216      2.00000
      7      -2.6192      2.00000
      8       2.3723      2.00000
      9       2.3745      2.00000
     10       2.3749      2.00000
     11       2.3790      2.00000
     12       2.3812      2.00000
     13       2.3842      2.00000
     14       5.0586      2.00000
     15       5.0606      2.00000
     16       5.0807      2.00000
     17       6.1454      0.00000
     18       6.1463      0.00000
     19       6.1512      0.00000
     20       6.1551      0.00000
     21       6.1599      0.00000
     22       6.1614      0.00000
     23       7.8417      0.00000
     24       7.8528      0.00000
     25       7.8540      0.00000
     26       8.1178      0.00000
     27      13.1837      0.00000
     28      13.1838      0.00000
     29      13.2692      0.00000
     30      15.0762      0.00000
     31      15.0821      0.00000
     32      15.0846      0.00000
     33      15.0858      0.00000
     34      15.0884      0.00000
     35      15.0917      0.00000
     36      16.3009      0.00000
     37      16.3027      0.00000
     38      16.3083      0.00000
     39      16.3107      0.00000
     40      16.3166      0.00000
     41      16.3234      0.00000
     42      16.6956      0.00000
     43      16.7082      0.00000
     44      16.7092      0.00000
     45      17.8718      0.00000
     46      17.8794      0.00000
     47      17.8885      0.00000
     48      17.8930      0.00000


--------------------------------------------------------------------------------------------------------


 soft charge-density along one line, spin component           1
         0         1         2         3         4         5         6         7         8         9
 total charge-density along one line
 
 pseudopotential strength for first ion, spin component:           1
 18.662   0.000   0.000   0.000   0.000   0.000   0.000   0.000
  0.000   0.006   0.000   0.000   0.000   0.000   0.000   0.000
  0.000   0.000   4.216   0.000   0.000  -0.004   0.000   0.000
  0.000   0.000   0.000   4.216   0.000   0.000  -0.004   0.000
  0.000   0.000   0.000   0.000   4.216   0.000   0.000  -0.004
  0.000   0.000  -0.004   0.000   0.000   0.005   0.000   0.000
  0.000   0.000   0.000  -0.004   0.000   0.000   0.005   0.000
  0.000   0.000   0.000   0.000  -0.004   0.000   0.000   0.005
 total augmentation occupancy for first ion, spin component:           1
  2.000   0.000   0.000   0.000   0.000   0.000   0.000   0.000
  0.000   0.000   0.000   0.000   0.000   0.000   0.000   0.000
  0.000   0.000   0.667   0.000   0.000   0.000   0.000   0.000
  0.000   0.000   0.000   0.667   0.000   0.000   0.000   0.000
  0.000   0.000   0.000   0.000   0.667   0.000   0.000   0.000
  0.000   0.000   0.000   0.000   0.000   0.000   0.000   0.000
  0.000   0.000   0.000   0.000   0.000   0.000   0.000   0.000
  0.000   0.000   0.000   0.000   0.000   0.000   0.000   0.000


----------------------------------------- Iteration    1(   5)  ---------------------------------------


     EDDAV:  cpu time    0.38: real time    0.38
       DOS:  cpu time    0.00: real time    0.00
    CHARGE:  cpu time    0.02: real time    0.02
    MIXING:  cpu time    0.00: real time    0.00
    --------------------------------------------
      LOOP:  cpu time    0.42: real time    0.42

 eigenvalue-minimisations  :    96
 total energy-change (2. order) :-0.3041237E-08  (-0.3039404E-08)
 number of electron      31.9999999 magnetization 
 augmentation part       -1.8053314 magnetization 

 Broyden mixing:
  rms(total) = 0.79306E+00    rms(broyden)= 0.79301E+00
  rms(prec ) = 0.15229E+01
  weight for this iteration     100.00

 Free energy of the ion-electron system (eV)
  ---------------------------------------------------
  alpha Z        PSCENC =        12.68944982
  Ewald energy   TEWEN  =      -907.56782891
  -1/2 Hartree   DENC   =       -45.63582033
  -exchange  EXHF       =         0.00000000
  -V(xc)+E(xc)   XCENC  =       -76.79673458
  PAW double counting   =       265.93453375     -123.69690146
  entropy T*S    EENTRO =         0.00000000
  eigenvalues    EBANDS =        14.08122744
  atomic energy  EATOM  =       826.37398168
  ---------------------------------------------------
  free energy    TOTEN  =       -34.61809259 eV

  energy without entropy =      -34.61809259  energy(sigma->0) =      -34.61809259


--------------------------------------------------------------------------------------------------------




 average (electrostatic) potential at core
  the test charge radii are     0.9892
  (the norm of the test charge is              1.0000)
       1 -84.3475       2 -84.3528       3 -84.3520       4 -84.3472       5 -84.3486
       6 -84.3518       7 -84.3543       8 -84.3506
 
 
 
 E-fermi :   5.1974     XC(G=0):  -9.5533     alpha+bet :-11.7379


 k-point   1 :       0.0000    0.0000    0.0000
  band No.  band energies     occupation 
      1      -6.6372      2.00000
      2      -2.6433      2.00000
      3      -2.6388      2.00000
      4      -2.6355      2.00000
      5      -2.6297      2.00000
      6      -2.6216      2.00000
      7      -2.6192      2.00000
      8       2.3723      2.00000
      9       2.3745      2.00000
     10       2.3749      2.00000
     11       2.3790      2.00000
     12       2.3812      2.00000
     13       2.3842      2.00000
     14       5.0586      2.00000
     15       5.0606      2.00000
     16       5.0807      2.00000
     17       6.1454      0.00000
     18       6.1463      0.00000
     19       6.1512      0.00000
     20       6.1551      0.00000
     21       6.1599      0.00000
     22       6.1614      0.00000
     23       7.8417      0.00000
     24       7.8528      0.00000
     25       7.8540      0.00000
     26       8.1178      0.00000
     27      13.1837      0.00000
     28      13.1838      0.00000
     29      13.2692      0.00000
     30      15.0761      0.00000
     31      15.0821      0.00000
     32      15.0845      0.00000
     33      15.0858      0.00000
     34      15.0884      0.00000
     35      15.0917      0.00000
     36      16.3007      0.00000
     37      16.3022      0.00000
     38      16.3081      0.00000
     39      16.3104      0.00000
     40      16.3161      0.00000
     41      16.3231      0.00000
     42      16.6955      0.00000
     43      16.7080      0.00000
     44      16.7091      0.00000
     45      17.8682      0.00000
     46      17.8731      0.00000
     47      17.8809      0.00000
     48      17.8863      0.00000


--------------------------------------------------------------------------------------------------------


 soft charge-density along one line, spin component           1
         0         1         2         3         4         5         6         7         8         9
 total charge-density along one line
 
 pseudopotential strength for first ion, spin component:           1
 18.662   0.000   0.000   0.000   0.000   0.000   0.000   0.000
  0.000   0.006   0.000   0.000   0.000   0.000   0.000   0.000
  0.000   0.000   4.216   0.000   0.000  -0.004   0.000   0.000
  0.000   0.000   0.000   4.216   0.000   0.000  -0.004   0.000
  0.000   0.000   0.000   0.000   4.216   0.000   0.000  -0.004
  0.000   0.000  -0.004   0.000   0.000   0.005   0.000   0.000
  0.000   0.000   0.000  -0.004   0.000   0.000   0.005   0.000
  0.000   0.000   0.000   0.000  -0.004   0.000   0.000   0.005
 total augmentation occupancy for first ion, spin component:           1
  1.380  -1.050   0.000   0.000   0.002   0.000   0.000  -0.002
 -1.050   0.917   0.001   0.000  -0.001  -0.001   0.000   0.002
  0.000   0.001   1.165   0.001   0.001  -0.758  -0.002  -0.001
  0.000   0.000   0.001   1.164   0.000  -0.002  -0.757   0.000
  0.002  -0.001   0.001   0.000   1.163  -0.001   0.000  -0.757
  0.000  -0.001  -0.758  -0.002  -0.001   0.569   0.002   0.002
  0.000   0.000  -0.002  -0.757   0.000   0.002   0.568   0.000
 -0.002   0.002  -0.001   0.000  -0.757   0.002   0.000   0.568


----------------------------------------- Iteration    1(   6)  ---------------------------------------


    POTLOK:  cpu time    0.02: real time    0.02
    SETDIJ:  cpu time    0.02: real time    0.02
    EDDIAG:  cpu time    0.03: real time    0.03
  RMM-DIIS:  cpu time    0.04: real time    0.05
    ORTHCH:  cpu time    0.01: real time    0.01
       DOS:  cpu time    0.00: real time    0.00
    CHARGE:  cpu time    0.02: real time    0.02
    MIXING:  cpu time    0.00: real time    0.00
    --------------------------------------------
      LOOP:  cpu time    0.15: real time    0.16

 eigenvalue-minimisations  :    96
 total energy-change (2. order) : 0.1001684E+01  (-0.3198541E-01)
 number of electron      31.9999999 magnetization 
 augmentation part       -1.7684004 magnetization 

 Broyden mixing:
  rms(total) = 0.47399E+00    rms(broyden)= 0.47399E+00
  rms(prec ) = 0.91065E+00
  weight for this iteration     100.00

 eigenvalues of (default mixing * dielectric matrix)
  average eigenvalue GAMMA=   2.4573
  2.4573

 Free energy of the ion-electron system (eV)
  ---------------------------------------------------
  alpha Z        PSCENC =        12.68944982
  Ewald energy   TEWEN  =      -907.56782891
  -1/2 Hartree   DENC   =       -54.68229796
  -exchange  EXHF       =         0.00000000
  -V(xc)+E(xc)   XCENC  =       -75.44942882
  PAW double counting   =       286.06048302     -144.35878654
  entropy T*S    EENTRO =         0.00000000
  eigenvalues    EBANDS =        23.31801865
  atomic energy  EATOM  =       826.37398168
  ---------------------------------------------------
  free energy    TOTEN  =       -33.61640906 eV

  energy without entropy =      -33.61640906  energy(sigma->0) =      -33.61640906


--------------------------------------------------------------------------------------------------------




 average (electrostatic) potential at core
  the test charge radii are     0.9892
  (the norm of the test charge is              1.0000)
       1 -83.8313       2 -83.8339       3 -83.8335       4 -83.8312       5 -83.8319
       6 -83.8334       7 -83.8346       8 -83.8329
 
 
 
 E-fermi :   5.5603     XC(G=0):  -9.4504     alpha+bet :-11.7379


 k-point   1 :       0.0000    0.0000    0.0000
  band No.  band energies     occupation 
      1      -6.3787      2.00000
      2      -2.3430      2.00000
      3      -2.3391      2.00000
      4      -2.3364      2.00000
      5      -2.3307      2.00000
      6      -2.3237      2.00000
      7      -2.3217      2.00000
      8       2.6339      2.00000
      9       2.6358      2.00000
     10       2.6362      2.00000
     11       2.6400      2.00000
     12       2.6420      2.00000
     13       2.6445      2.00000
     14       5.3921      2.00000
     15       5.3941      2.00000
     16       5.4139      2.00000
     17       6.2605      0.00000
     18       6.2613      0.00000
     19       6.2656      0.00000
     20       6.2695      0.00000
     21       6.2739      0.00000
     22       6.2751      0.00000
     23       8.0489      0.00000
     24       8.0603      0.00000
     25       8.0615      0.00000
     26       8.4862      0.00000
     27      13.3049      0.00000
     28      13.3569      0.00000
     29      13.3569      0.00000
     30      15.3729      0.00000
     31      15.3782      0.00000
     32      15.3806      0.00000
     33      15.3821      0.00000
     34      15.3844      0.00000
     35      15.3872      0.00000
     36      16.5374      0.00000
     37      16.5388      0.00000
     38      16.5441      0.00000
     39      16.5463      0.00000
     40      16.5515      0.00000
     41      16.5578      0.00000
     42      16.7400      0.00000
     43      16.7527      0.00000
     44      16.7538      0.00000
     45      18.1567      0.00000
     46      18.1636      0.00000
     47      18.1676      0.00000
     48      18.1745      0.00000


--------------------------------------------------------------------------------------------------------


 soft charge-density along one line, spin component           1
         0         1         2         3         4         5         6         7         8         9
 total charge-density along one line
 
 pseudopotential strength for first ion, spin component:           1
 18.635  -0.001   0.000   0.000   0.000   0.000   0.000   0.000
 -0.001   0.006   0.000   0.000   0.000   0.000   0.000   0.000
  0.000   0.000   4.221   0.000   0.000  -0.004   0.000   0.000
  0.000   0.000   0.000   4.221   0.000   0.000  -0.004   0.000
  0.000   0.000   0.000   0.000   4.221   0.000   0.000  -0.004
  0.000   0.000  -0.004   0.000   0.000   0.005   0.000   0.000
  0.000   0.000   0.000  -0.004   0.000   0.000   0.005   0.000
  0.000   0.000   0.000   0.000  -0.004   0.000   0.000   0.005
 total augmentation occupancy for first ion, spin component:           1
  1.351  -1.089   0.000   0.000   0.001   0.001   0.000  -0.002
 -1.089   0.995   0.001  -0.001  -0.001  -0.001   0.000   0.002
  0.000   0.001   1.148   0.001   0.000  -0.782  -0.002  -0.001
  0.000  -0.001   0.001   1.146   0.000  -0.002  -0.781   0.000
  0.001  -0.001   0.000   0.000   1.146  -0.001   0.000  -0.780
  0.001  -0.001  -0.782  -0.002  -0.001   0.608   0.002   0.002
  0.000   0.000  -0.002  -0.781   0.000   0.002   0.607   0.000
 -0.002   0.002  -0.001   0.000  -0.780   0.002   0.000   0.606


----------------------------------------- Iteration    1(   7)  ---------------------------------------


    POTLOK:  cpu time    0.02: real time    0.02
    SETDIJ:  cpu time    0.03: real time    0.03
    EDDIAG:  cpu time    0.02: real time    0.02
  RMM-DIIS:  cpu time    0.02: real time    0.02
    ORTHCH:  cpu time    0.01: real time    0.01
       DOS:  cpu time    0.00: real time    0.00
    CHARGE:  cpu time    0.02: real time    0.02
    MIXING:  cpu time    0.00: real time    0.00
    --------------------------------------------
      LOOP:  cpu time    0.13: real time    0.13

 eigenvalue-minimisations  :    96
 total energy-change (2. order) : 0.4246419E+00  (-0.7389158E-01)
 number of electron      31.9999999 magnetization 
 augmentation part       -1.7214437 magnetization 

 Broyden mixing:
  rms(total) = 0.46259E-01    rms(broyden)= 0.46249E-01
  rms(prec ) = 0.78470E-01
  weight for this iteration     100.00

 eigenvalues of (default mixing * dielectric matrix)
  average eigenvalue GAMMA=   2.5304
  2.5304  2.5304

 Free energy of the ion-electron system (eV)
  ---------------------------------------------------
  alpha Z        PSCENC =        12.68944982
  Ewald energy   TEWEN  =      -907.56782891
  -1/2 Hartree   DENC   =       -70.51310131
  -exchange  EXHF       =         0.00000000
  -V(xc)+E(xc)   XCENC  =       -73.00929643
  PAW double counting   =       313.72394182     -172.73593755
  entropy T*S    EENTRO =         0.00000000
  eigenvalues    EBANDS =        37.84702373
  atomic energy  EATOM  =       826.37398168
  ---------------------------------------------------
  free energy    TOTEN  =       -33.19176715 eV

  energy without entropy =      -33.19176715  energy(sigma->0) =      -33.19176715


--------------------------------------------------------------------------------------------------------




 average (electrostatic) potential at core
  the test charge radii are     0.9892
  (the norm of the test charge is              1.0000)
       1 -83.1448       2 -83.1458       3 -83.1466       4 -83.1440       5 -83.1451
       6 -83.1458       7 -83.1467       8 -83.1458
 
 
 
 E-fermi :   6.0976     XC(G=0):  -9.2018     alpha+bet :-11.7379


 k-point   1 :       0.0000    0.0000    0.0000
  band No.  band energies     occupation 
      1      -5.9621      2.00000
      2      -1.8754      2.00000
      3      -1.8721      2.00000
      4      -1.8699      2.00000
      5      -1.8640      2.00000
      6      -1.8582      2.00000
      7      -1.8565      2.00000
      8       3.0471      2.00000
      9       3.0486      2.00000
     10       3.0489      2.00000
     11       3.0526      2.00000
     12       3.0542      2.00000
     13       3.0564      2.00000
     14       5.9169      2.00000
     15       5.9188      2.00000
     16       5.9381      2.00000
     17       6.5195      0.00000
     18       6.5203      0.00000
     19       6.5238      0.00000
     20       6.5279      0.00000
     21       6.5318      0.00000
     22       6.5327      0.00000
     23       8.3739      0.00000
     24       8.3855      0.00000
     25       8.3867      0.00000
     26       9.0452      0.00000
     27      13.6012      0.00000
     28      13.6204      0.00000
     29      13.6204      0.00000
     30      15.8236      0.00000
     31      15.8283      0.00000
     32      15.8305      0.00000
     33      15.8323      0.00000
     34      15.8340      0.00000
     35      15.8367      0.00000
     36      16.8947      0.00000
     37      16.9068      0.00000
     38      16.9087      0.00000
     39      16.9575      0.00000
     40      16.9590      0.00000
     41      16.9633      0.00000
     42      16.9656      0.00000
     43      16.9700      0.00000
     44      16.9761      0.00000
     45      18.6517      0.00000
     46      18.6609      0.00000
     47      18.6681      0.00000
     48      18.6767      0.00000


--------------------------------------------------------------------------------------------------------


 soft charge-density along one line, spin component           1
         0         1         2         3         4         5         6         7         8         9
 total charge-density along one line
 
 pseudopotential strength for first ion, spin component:           1
 18.596  -0.001   0.000   0.000   0.000   0.000   0.000   0.000
 -0.001   0.006   0.000   0.000   0.000   0.000   0.000   0.000
  0.000   0.000   4.227   0.000   0.000  -0.005   0.000   0.000
  0.000   0.000   0.000   4.227   0.000   0.000  -0.005   0.000
  0.000   0.000   0.000   0.000   4.227   0.000   0.000  -0.005
  0.000   0.000  -0.005   0.000   0.000   0.005   0.000   0.000
  0.000   0.000   0.000  -0.005   0.000   0.000   0.005   0.000
  0.000   0.000   0.000   0.000  -0.005   0.000   0.000   0.005
 total augmentation occupancy for first ion, spin component:           1
  1.314  -1.111   0.000  -0.001   0.002   0.001   0.000  -0.003
 -1.111   1.056   0.001  -0.001  -0.001  -0.001   0.000   0.002
  0.000   0.001   1.123   0.001  -0.001  -0.805  -0.002  -0.001
 -0.001  -0.001   0.001   1.122   0.000  -0.002  -0.804   0.000
  0.002  -0.001  -0.001   0.000   1.121  -0.001   0.000  -0.803
  0.001  -0.001  -0.805  -0.002  -0.001   0.652   0.002   0.002
  0.000   0.000  -0.002  -0.804   0.000   0.002   0.650   0.000
 -0.003   0.002  -0.001   0.000  -0.803   0.002   0.000   0.650


----------------------------------------- Iteration    1(   8)  ---------------------------------------


    POTLOK:  cpu time    0.02: real time    0.02
    SETDIJ:  cpu time    0.02: real time    0.02
    EDDIAG:  cpu time    0.02: real time    0.02
  RMM-DIIS:  cpu time    0.03: real time    0.03
    ORTHCH:  cpu time    0.01: real time    0.01
       DOS:  cpu time    0.00: real time    0.00
    CHARGE:  cpu time    0.02: real time    0.02
    MIXING:  cpu time    0.00: real time    0.00
    --------------------------------------------
      LOOP:  cpu time    0.12: real time    0.12

 eigenvalue-minimisations  :    96
 total energy-change (2. order) :-0.3198104E-01  (-0.2164054E-02)
 number of electron      31.9999999 magnetization 
 augmentation part       -1.7275464 magnetization 

 Broyden mixing:
  rms(total) = 0.74968E-02    rms(broyden)= 0.74963E-02
  rms(prec ) = 0.17972E-01
  weight for this iteration     100.00

 eigenvalues of (default mixing * dielectric matrix)
  average eigenvalue GAMMA=   2.1193
  1.2687  2.8626  2.2267

 Free energy of the ion-electron system (eV)
  ---------------------------------------------------
  alpha Z        PSCENC =        12.68944982
  Ewald energy   TEWEN  =      -907.56782891
  -1/2 Hartree   DENC   =       -70.39721885
  -exchange  EXHF       =         0.00000000
  -V(xc)+E(xc)   XCENC  =       -72.96581395
  PAW double counting   =       307.35807045     -166.18515484
  entropy T*S    EENTRO =         0.00000000
  eigenvalues    EBANDS =        37.47076641
  atomic energy  EATOM  =       826.37398168
  ---------------------------------------------------
  free energy    TOTEN  =       -33.22374820 eV

  energy without entropy =      -33.22374820  energy(sigma->0) =      -33.22374820


--------------------------------------------------------------------------------------------------------




 average (electrostatic) potential at core
  the test charge radii are     0.9892
  (the norm of the test charge is              1.0000)
       1 -83.2462       2 -83.2500       3 -83.2499       4 -83.2458       5 -83.2471
       6 -83.2495       7 -83.2514       8 -83.2487
 
 
 
 E-fermi :   6.0366     XC(G=0):  -9.1504     alpha+bet :-11.7379


 k-point   1 :       0.0000    0.0000    0.0000
  band No.  band energies     occupation 
      1      -5.9632      2.00000
      2      -1.8877      2.00000
      3      -1.8841      2.00000
      4      -1.8816      2.00000
      5      -1.8757      2.00000
      6      -1.8692      2.00000
      7      -1.8673      2.00000
      8       3.0354      2.00000
      9       3.0369      2.00000
     10       3.0373      2.00000
     11       3.0410      2.00000
     12       3.0428      2.00000
     13       3.0453      2.00000
     14       5.9008      2.00000
     15       5.9026      2.00000
     16       5.9220      2.00000
     17       6.5701      0.00000
     18       6.5710      0.00000
     19       6.5746      0.00000
     20       6.5788      0.00000
     21       6.5829      0.00000
     22       6.5839      0.00000
     23       8.3632      0.00000
     24       8.3748      0.00000
     25       8.3759      0.00000
     26       9.0381      0.00000
     27      13.6064      0.00000
     28      13.6064      0.00000
     29      13.7783      0.00000
     30      15.8086      0.00000
     31      15.8137      0.00000
     32      15.8159      0.00000
     33      15.8175      0.00000
     34      15.8192      0.00000
     35      15.8223      0.00000
     36      16.9318      0.00000
     37      16.9430      0.00000
     38      16.9458      0.00000
     39      16.9637      0.00000
     40      16.9654      0.00000
     41      16.9697      0.00000
     42      16.9721      0.00000
     43      16.9765      0.00000
     44      16.9833      0.00000
     45      18.6868      0.00000
     46      18.6978      0.00000
     47      18.7064      0.00000
     48      18.7149      0.00000


--------------------------------------------------------------------------------------------------------


 soft charge-density along one line, spin component           1
         0         1         2         3         4         5         6         7         8         9
 total charge-density along one line
 
 pseudopotential strength for first ion, spin component:           1
 18.599  -0.001   0.000   0.000   0.000   0.000   0.000   0.000
 -0.001   0.006   0.000   0.000   0.000   0.000   0.000   0.000
  0.000   0.000   4.224   0.000   0.000  -0.005   0.000   0.000
  0.000   0.000   0.000   4.224   0.000   0.000  -0.005   0.000
  0.000   0.000   0.000   0.000   4.224   0.000   0.000  -0.005
  0.000   0.000  -0.005   0.000   0.000   0.005   0.000   0.000
  0.000   0.000   0.000  -0.005   0.000   0.000   0.005   0.000
  0.000   0.000   0.000   0.000  -0.005   0.000   0.000   0.005
 total augmentation occupancy for first ion, spin component:           1
  1.320  -1.091   0.000  -0.001   0.002   0.001   0.000  -0.002
 -1.091   1.019   0.001  -0.001  -0.001  -0.001   0.000   0.002
  0.000   0.001   1.124   0.001   0.000  -0.801  -0.002  -0.001
 -0.001  -0.001   0.001   1.123   0.000  -0.002  -0.800   0.000
  0.002  -0.001   0.000   0.000   1.122  -0.001   0.000  -0.799
  0.001  -0.001  -0.801  -0.002  -0.001   0.647   0.002   0.002
  0.000   0.000  -0.002  -0.800   0.000   0.002   0.646   0.000
 -0.002   0.002  -0.001   0.000  -0.799   0.002   0.000   0.645


----------------------------------------- Iteration    1(   9)  ---------------------------------------


    POTLOK:  cpu time    0.02: real time    0.02
    SETDIJ:  cpu time    0.02: real time    0.02
    EDDIAG:  cpu time    0.02: real time    0.02
  RMM-DIIS:  cpu time    0.06: real time    0.06
    ORTHCH:  cpu time    0.01: real time    0.01
       DOS:  cpu time    0.00: real time    0.00
    CHARGE:  cpu time    0.02: real time    0.02
    MIXING:  cpu time    0.00: real time    0.00
    --------------------------------------------
      LOOP:  cpu time    0.15: real time    0.16

 eigenvalue-minimisations  :   106
 total energy-change (2. order) :-0.1126085E-02  (-0.1259740E-03)
 number of electron      31.9999999 magnetization 
 augmentation part       -1.7274618 magnetization 

 Broyden mixing:
  rms(total) = 0.41735E-02    rms(broyden)= 0.41734E-02
  rms(prec ) = 0.68471E-02
  weight for this iteration     100.00

 eigenvalues of (default mixing * dielectric matrix)
  average eigenvalue GAMMA=   2.3115
  0.9898  3.2748  2.6949  2.2864

 Free energy of the ion-electron system (eV)
  ---------------------------------------------------
  alpha Z        PSCENC =        12.68944982
  Ewald energy   TEWEN  =      -907.56782891
  -1/2 Hartree   DENC   =       -70.79387983
  -exchange  EXHF       =         0.00000000
  -V(xc)+E(xc)   XCENC  =       -72.90662043
  PAW double counting   =       307.71348637     -166.55110374
  entropy T*S    EENTRO =         0.00000000
  eigenvalues    EBANDS =        37.81764075
  atomic energy  EATOM  =       826.37398168
  ---------------------------------------------------
  free energy    TOTEN  =       -33.22487428 eV

  energy without entropy =      -33.22487428  energy(sigma->0) =      -33.22487428


--------------------------------------------------------------------------------------------------------




 average (electrostatic) potential at core
  the test charge radii are     0.9892
  (the norm of the test charge is              1.0000)
       1 -83.2324       2 -83.2355       3 -83.2350       4 -83.2324       5 -83.2331
       6 -83.2350       7 -83.2363       8 -83.2343
 
 
 
 E-fermi :   6.0514     XC(G=0):  -9.1363     alpha+bet :-11.7379


 k-point   1 :       0.0000    0.0000    0.0000
  band No.  band energies     occupation 
      1      -5.9520      2.00000
      2      -1.8762      2.00000
      3      -1.8728      2.00000
      4      -1.8704      2.00000
      5      -1.8646      2.00000
      6      -1.8582      2.00000
      7      -1.8564      2.00000
      8       3.0453      2.00000
      9       3.0468      2.00000
     10       3.0472      2.00000
     11       3.0508      2.00000
     12       3.0526      2.00000
     13       3.0549      2.00000
     14       5.9129      2.00000
     15       5.9148      2.00000
     16       5.9341      2.00000
     17       6.5841      0.00000
     18       6.5850      0.00000
     19       6.5887      0.00000
     20       6.5928      0.00000
     21       6.5969      0.00000
     22       6.5979      0.00000
     23       8.3709      0.00000
     24       8.3824      0.00000
     25       8.3836      0.00000
     26       9.0526      0.00000
     27      13.6116      0.00000
     28      13.6117      0.00000
     29      13.8104      0.00000
     30      15.8192      0.00000
     31      15.8242      0.00000
     32      15.8264      0.00000
     33      15.8281      0.00000
     34      15.8298      0.00000
     35      15.8327      0.00000
     36      16.9418      0.00000
     37      16.9530      0.00000
     38      16.9558      0.00000
     39      16.9759      0.00000
     40      16.9776      0.00000
     41      16.9818      0.00000
     42      16.9842      0.00000
     43      16.9886      0.00000
     44      16.9952      0.00000
     45      18.7048      0.00000
     46      18.7156      0.00000
     47      18.7251      0.00000
     48      18.7336      0.00000


--------------------------------------------------------------------------------------------------------


 soft charge-density along one line, spin component           1
         0         1         2         3         4         5         6         7         8         9
 total charge-density along one line
 
 pseudopotential strength for first ion, spin component:           1
 18.598  -0.001   0.000   0.000   0.000   0.000   0.000   0.000
 -0.001   0.006   0.000   0.000   0.000   0.000   0.000   0.000
  0.000   0.000   4.224   0.000   0.000  -0.005   0.000   0.000
  0.000   0.000   0.000   4.224   0.000   0.000  -0.005   0.000
  0.000   0.000   0.000   0.000   4.224   0.000   0.000  -0.005
  0.000   0.000  -0.005   0.000   0.000   0.005   0.000   0.000
  0.000   0.000   0.000  -0.005   0.000   0.000   0.005   0.000
  0.000   0.000   0.000   0.000  -0.005   0.000   0.000   0.005
 total augmentation occupancy for first ion, spin component:           1
  1.320  -1.086   0.000  -0.001   0.002   0.001   0.000  -0.002
 -1.086   1.010   0.001  -0.001  -0.001  -0.001   0.000   0.002
  0.000   0.001   1.124   0.001   0.000  -0.801  -0.002  -0.001
 -0.001  -0.001   0.001   1.122   0.000  -0.002  -0.800   0.000
  0.002  -0.001   0.000   0.000   1.122  -0.001   0.000  -0.799
  0.001  -0.001  -0.801  -0.002  -0.001   0.647   0.002   0.001
  0.000   0.000  -0.002  -0.800   0.000   0.002   0.646   0.000
 -0.002   0.002  -0.001   0.000  -0.799   0.001   0.000   0.645


----------------------------------------- Iteration    1(  10)  ---------------------------------------


    POTLOK:  cpu time    0.02: real time    0.02
    SETDIJ:  cpu time    0.02: real time    0.02
    EDDIAG:  cpu time    0.02: real time    0.02
  RMM-DIIS:  cpu time    0.07: real time    0.07
    ORTHCH:  cpu time    0.01: real time    0.01
       DOS:  cpu time    0.00: real time    0.00
    CHARGE:  cpu time    0.02: real time    0.02
    MIXING:  cpu time    0.00: real time    0.00
    --------------------------------------------
      LOOP:  cpu time    0.16: real time    0.17

 eigenvalue-minimisations  :   104
 total energy-change (2. order) :-0.1857600E-03  (-0.2530168E-04)
 number of electron      31.9999999 magnetization 
 augmentation part       -1.7273300 magnetization 

 Broyden mixing:
  rms(total) = 0.52204E-03    rms(broyden)= 0.52165E-03
  rms(prec ) = 0.10114E-02
  weight for this iteration     100.00

 eigenvalues of (default mixing * dielectric matrix)
  average eigenvalue GAMMA=   2.0333
  3.0897  2.6216  2.1697  0.9784  1.3072

 Free energy of the ion-electron system (eV)
  ---------------------------------------------------
  alpha Z        PSCENC =        12.68944982
  Ewald energy   TEWEN  =      -907.56782891
  -1/2 Hartree   DENC   =       -70.84796805
  -exchange  EXHF       =         0.00000000
  -V(xc)+E(xc)   XCENC  =       -72.90967427
  PAW double counting   =       307.80591724     -166.64994245
  entropy T*S    EENTRO =         0.00000000
  eigenvalues    EBANDS =        37.88100489
  atomic energy  EATOM  =       826.37398168
  ---------------------------------------------------
  free energy    TOTEN  =       -33.22506004 eV

  energy without entropy =      -33.22506004  energy(sigma->0) =      -33.22506004


--------------------------------------------------------------------------------------------------------




 average (electrostatic) potential at core
  the test charge radii are     0.9892
  (the norm of the test charge is              1.0000)
       1 -83.2240       2 -83.2263       3 -83.2259       4 -83.2240       5 -83.2246
       6 -83.2259       7 -83.2270       8 -83.2254
 
 
 
 E-fermi :   6.0561     XC(G=0):  -9.1306     alpha+bet :-11.7379


 k-point   1 :       0.0000    0.0000    0.0000
  band No.  band energies     occupation 
      1      -5.9495      2.00000
      2      -1.8740      2.00000
      3      -1.8706      2.00000
      4      -1.8682      2.00000
      5      -1.8625      2.00000
      6      -1.8563      2.00000
      7      -1.8545      2.00000
      8       3.0471      2.00000
      9       3.0485      2.00000
     10       3.0489      2.00000
     11       3.0525      2.00000
     12       3.0543      2.00000
     13       3.0566      2.00000
     14       5.9151      2.00000
     15       5.9170      2.00000
     16       5.9362      2.00000
     17       6.5895      0.00000
     18       6.5904      0.00000
     19       6.5941      0.00000
     20       6.5982      0.00000
     21       6.6024      0.00000
     22       6.6034      0.00000
     23       8.3719      0.00000
     24       8.3834      0.00000
     25       8.3846      0.00000
     26       9.0563      0.00000
     27      13.6117      0.00000
     28      13.6117      0.00000
     29      13.8267      0.00000
     30      15.8211      0.00000
     31      15.8260      0.00000
     32      15.8282      0.00000
     33      15.8299      0.00000
     34      15.8317      0.00000
     35      15.8345      0.00000
     36      16.9459      0.00000
     37      16.9570      0.00000
     38      16.9599      0.00000
     39      16.9787      0.00000
     40      16.9804      0.00000
     41      16.9846      0.00000
     42      16.9870      0.00000
     43      16.9913      0.00000
     44      16.9978      0.00000
     45      18.7124      0.00000
     46      18.7229      0.00000
     47      18.7320      0.00000
     48      18.7406      0.00000


--------------------------------------------------------------------------------------------------------


 soft charge-density along one line, spin component           1
         0         1         2         3         4         5         6         7         8         9
 total charge-density along one line
 
 pseudopotential strength for first ion, spin component:           1
 18.597  -0.001   0.000   0.000   0.000   0.000   0.000   0.000
 -0.001   0.006   0.000   0.000   0.000   0.000   0.000   0.000
  0.000   0.000   4.224   0.000   0.000  -0.005   0.000   0.000
  0.000   0.000   0.000   4.224   0.000   0.000  -0.005   0.000
  0.000   0.000   0.000   0.000   4.224   0.000   0.000  -0.005
  0.000   0.000  -0.005   0.000   0.000   0.005   0.000   0.000
  0.000   0.000   0.000  -0.005   0.000   0.000   0.005   0.000
  0.000   0.000   0.000   0.000  -0.005   0.000   0.000   0.005
 total augmentation occupancy for first ion, spin component:           1
  1.320  -1.086   0.000  -0.001   0.002   0.001   0.000  -0.002
 -1.086   1.010   0.001  -0.001  -0.001  -0.001   0.000   0.002
  0.000   0.001   1.123   0.001   0.000  -0.801  -0.002  -0.001
 -0.001  -0.001   0.001   1.122   0.000  -0.002  -0.800   0.000
  0.002  -0.001   0.000   0.000   1.122  -0.001   0.000  -0.800
  0.001  -0.001  -0.801  -0.002  -0.001   0.647   0.002   0.001
  0.000   0.000  -0.002  -0.800   0.000   0.002   0.647   0.000
 -0.002   0.002  -0.001   0.000  -0.800   0.001   0.000   0.646


----------------------------------------- Iteration    1(  11)  ---------------------------------------


    POTLOK:  cpu time    0.02: real time    0.02
    SETDIJ:  cpu time    0.02: real time    0.02
    EDDIAG:  cpu time    0.02: real time    0.02
  RMM-DIIS:  cpu time    0.04: real time    0.04
    ORTHCH:  cpu time    0.01: real time    0.01
       DOS:  cpu time    0.00: real time    0.00
    CHARGE:  cpu time    0.02: real time    0.02
    MIXING:  cpu time    0.00: real time    0.00
    --------------------------------------------
      LOOP:  cpu time    0.13: real time    0.14

 eigenvalue-minimisations  :   115
 total energy-change (2. order) : 0.4257642E-05  (-0.3852680E-06)
 number of electron      31.9999999 magnetization 
 augmentation part       -1.7274379 magnetization 

 Broyden mixing:
  rms(total) = 0.15798E-03    rms(broyden)= 0.15793E-03
  rms(prec ) = 0.30511E-03
  weight for this iteration     100.00

 eigenvalues of (default mixing * dielectric matrix)
  average eigenvalue GAMMA=   1.9830
  3.2037  2.6998  2.1023  1.9500  0.9709  0.9709

 Free energy of the ion-electron system (eV)
  ---------------------------------------------------
  alpha Z        PSCENC =        12.68944982
  Ewald energy   TEWEN  =      -907.56782891
  -1/2 Hartree   DENC   =       -70.82711371
  -exchange  EXHF       =         0.00000000
  -V(xc)+E(xc)   XCENC  =       -72.91094797
  PAW double counting   =       307.73381686     -166.57497646
  entropy T*S    EENTRO =         0.00000000
  eigenvalues    EBANDS =        37.85856290
  atomic energy  EATOM  =       826.37398168
  ---------------------------------------------------
  free energy    TOTEN  =       -33.22505578 eV

  energy without entropy =      -33.22505578  energy(sigma->0) =      -33.22505578


--------------------------------------------------------------------------------------------------------




 average (electrostatic) potential at core
  the test charge radii are     0.9892
  (the norm of the test charge is              1.0000)
       1 -83.2261       2 -83.2289       3 -83.2284       4 -83.2261       5 -83.2268
       6 -83.2284       7 -83.2297       8 -83.2278
 
 
 
 E-fermi :   6.0553     XC(G=0):  -9.1314     alpha+bet :-11.7379


 k-point   1 :       0.0000    0.0000    0.0000
  band No.  band energies     occupation 
      1      -5.9502      2.00000
      2      -1.8748      2.00000
      3      -1.8714      2.00000
      4      -1.8690      2.00000
      5      -1.8632      2.00000
      6      -1.8569      2.00000
      7      -1.8551      2.00000
      8       3.0464      2.00000
      9       3.0479      2.00000
     10       3.0482      2.00000
     11       3.0519      2.00000
     12       3.0537      2.00000
     13       3.0560      2.00000
     14       5.9143      2.00000
     15       5.9162      2.00000
     16       5.9354      2.00000
     17       6.5887      0.00000
     18       6.5896      0.00000
     19       6.5933      0.00000
     20       6.5974      0.00000
     21       6.6016      0.00000
     22       6.6026      0.00000
     23       8.3714      0.00000
     24       8.3829      0.00000
     25       8.3841      0.00000
     26       9.0553      0.00000
     27      13.6114      0.00000
     28      13.6115      0.00000
     29      13.8248      0.00000
     30      15.8204      0.00000
     31      15.8253      0.00000
     32      15.8275      0.00000
     33      15.8292      0.00000
     34      15.8309      0.00000
     35      15.8339      0.00000
     36      16.9454      0.00000
     37      16.9565      0.00000
     38      16.9593      0.00000
     39      16.9780      0.00000
     40      16.9796      0.00000
     41      16.9838      0.00000
     42      16.9863      0.00000
     43      16.9906      0.00000
     44      16.9972      0.00000
     45      18.7142      0.00000
     46      18.7231      0.00000
     47      18.7316      0.00000
     48      18.7398      0.00000


--------------------------------------------------------------------------------------------------------


 soft charge-density along one line, spin component           1
         0         1         2         3         4         5         6         7         8         9
 total charge-density along one line
 
 pseudopotential strength for first ion, spin component:           1
 18.597  -0.001   0.000   0.000   0.000   0.000   0.000   0.000
 -0.001   0.006   0.000   0.000   0.000   0.000   0.000   0.000
  0.000   0.000   4.224   0.000   0.000  -0.005   0.000   0.000
  0.000   0.000   0.000   4.224   0.000   0.000  -0.005   0.000
  0.000   0.000   0.000   0.000   4.224   0.000   0.000  -0.005
  0.000   0.000  -0.005   0.000   0.000   0.005   0.000   0.000
  0.000   0.000   0.000  -0.005   0.000   0.000   0.005   0.000
  0.000   0.000   0.000   0.000  -0.005   0.000   0.000   0.005
 total augmentation occupancy for first ion, spin component:           1
  1.320  -1.085   0.000  -0.001   0.002   0.001   0.000  -0.002
 -1.085   1.010   0.001  -0.001  -0.001  -0.001   0.000   0.002
  0.000   0.001   1.123   0.001   0.000  -0.801  -0.002  -0.001
 -0.001  -0.001   0.001   1.122   0.000  -0.002  -0.800   0.000
  0.002  -0.001   0.000   0.000   1.122  -0.001   0.000  -0.800
  0.001  -0.001  -0.801  -0.002  -0.001   0.647   0.002   0.001
  0.000   0.000  -0.002  -0.800   0.000   0.002   0.647   0.000
 -0.002   0.002  -0.001   0.000  -0.800   0.001   0.000   0.646


----------------------------------------- Iteration    1(  12)  ---------------------------------------


    POTLOK:  cpu time    0.02: real time    0.02
    SETDIJ:  cpu time    0.02: real time    0.02
    EDDIAG:  cpu time    0.02: real time    0.02
  RMM-DIIS:  cpu time    0.04: real time    0.04
    ORTHCH:  cpu time    0.00: real time    0.01
       DOS:  cpu time    0.00: real time    0.00
    CHARGE:  cpu time    0.02: real time    0.02
    MIXING:  cpu time    0.00: real time    0.00
    --------------------------------------------
      LOOP:  cpu time    0.14: real time    0.14

 eigenvalue-minimisations  :   126
 total energy-change (2. order) :-0.5847191E-06  (-0.5017271E-07)
 number of electron      31.9999999 magnetization 
 augmentation part       -1.7274256 magnetization 

 Broyden mixing:
  rms(total) = 0.57751E-04    rms(broyden)= 0.57721E-04
  rms(prec ) = 0.82591E-04
  weight for this iteration     100.00

 eigenvalues of (default mixing * dielectric matrix)
  average eigenvalue GAMMA=   1.9889
  3.1934  2.7333  2.4541  2.1005  1.4827  0.9981  0.9600

 Free energy of the ion-electron system (eV)
  ---------------------------------------------------
  alpha Z        PSCENC =        12.68944982
  Ewald energy   TEWEN  =      -907.56782891
  -1/2 Hartree   DENC   =       -70.83131424
  -exchange  EXHF       =         0.00000000
  -V(xc)+E(xc)   XCENC  =       -72.91089058
  PAW double counting   =       307.74018314     -166.58149390
  entropy T*S    EENTRO =         0.00000000
  eigenvalues    EBANDS =        37.86285662
  atomic energy  EATOM  =       826.37398168
  ---------------------------------------------------
  free energy    TOTEN  =       -33.22505637 eV

  energy without entropy =      -33.22505637  energy(sigma->0) =      -33.22505637


--------------------------------------------------------------------------------------------------------




 average (electrostatic) potential at core
  the test charge radii are     0.9892
  (the norm of the test charge is              1.0000)
       1 -83.2256       2 -83.2284       3 -83.2280       4 -83.2255       5 -83.2263
       6 -83.2280       7 -83.2293       8 -83.2273
 
 
 
 E-fermi :   6.0557     XC(G=0):  -9.1311     alpha+bet :-11.7379


 k-point   1 :       0.0000    0.0000    0.0000
  band No.  band energies     occupation 
      1      -5.9500      2.00000
      2      -1.8747      2.00000
      3      -1.8713      2.00000
      4      -1.8689      2.00000
      5      -1.8631      2.00000
      6      -1.8568      2.00000
      7      -1.8550      2.00000
      8       3.0465      2.00000
      9       3.0480      2.00000
     10       3.0484      2.00000
     11       3.0520      2.00000
     12       3.0538      2.00000
[...]
    MIXING:  cpu time    0.00: real time    0.00
    --------------------------------------------
      LOOP:  cpu time    0.16: real time    0.16

 Broyden mixing:
  rms(total) = 0.58668E-02    rms(broyden)= 0.58665E-02
  rms(prec ) = 0.10000E-01
  weight for this iteration     100.00

 eigenvalues of (default mixing * dielectric matrix)
  average eigenvalue GAMMA=   2.0769
  3.0352  2.4851  1.1311  1.6563

 Free energy of the ion-electron system (eV)
  ---------------------------------------------------
  -1/2 Hartree   DENC   =        -4.61677049
  -V(xc)+E(xc)   XCENC  =         0.95112588
  PAW double counting   =         3.09401311       -3.14327526
  entropy T*S    EENTRO =         0.00000000
  eigenvalues    EBANDS =       -24.52926786
  ---------------------------------------------------
  free energy    TOTEN  =       -28.24417462 eV

  energy without entropy =      -28.24417462


----------------------------------------- Iteration    3(   7)  ---------------------------------------


   POT+DIJ:  cpu time    0.08: real time    0.08
    HAMIL1:  cpu time    0.00: real time    0.01
    LRDIAG:  cpu time    0.01: real time    0.01
    LRDIIS:  cpu time    0.02: real time    0.02
    LRDIAG:  cpu time    0.01: real time    0.01
    MIXING:  cpu time    0.00: real time    0.00
    --------------------------------------------
      LOOP:  cpu time    0.16: real time    0.16

 Broyden mixing:
  rms(total) = 0.50834E-03    rms(broyden)= 0.50755E-03
  rms(prec ) = 0.90268E-03
  weight for this iteration     100.00

 eigenvalues of (default mixing * dielectric matrix)
  average eigenvalue GAMMA=   1.9811
  3.0956  2.4020  1.1141  1.7203  1.5735

 Free energy of the ion-electron system (eV)
  ---------------------------------------------------
  -1/2 Hartree   DENC   =        -4.62484865
  -V(xc)+E(xc)   XCENC  =         0.95720321
  PAW double counting   =         3.06316931       -3.11196903
  entropy T*S    EENTRO =         0.00000000
  eigenvalues    EBANDS =       -24.55982849
  ---------------------------------------------------
  free energy    TOTEN  =       -28.27627366 eV

  energy without entropy =      -28.27627366


----------------------------------------- Iteration    3(   8)  ---------------------------------------


   POT+DIJ:  cpu time    0.08: real time    0.08
    HAMIL1:  cpu time    0.01: real time    0.01
    LRDIAG:  cpu time    0.01: real time    0.01
    LRDIIS:  cpu time    0.02: real time    0.02
    LRDIAG:  cpu time    0.01: real time    0.01
    MIXING:  cpu time    0.00: real time    0.00
    --------------------------------------------
      LOOP:  cpu time    0.16: real time    0.16

 Broyden mixing:
  rms(total) = 0.26910E-03    rms(broyden)= 0.26899E-03
  rms(prec ) = 0.39415E-03
  weight for this iteration     100.00

 eigenvalues of (default mixing * dielectric matrix)
  average eigenvalue GAMMA=   2.0086
  3.1103  2.6718  2.2511  1.6934  1.0922  1.2330

 Free energy of the ion-electron system (eV)
  ---------------------------------------------------
  -1/2 Hartree   DENC   =        -4.62757909
  -V(xc)+E(xc)   XCENC  =         0.95790747
  PAW double counting   =         3.06729713       -3.11616632
  entropy T*S    EENTRO =         0.00000000
  eigenvalues    EBANDS =       -24.56056516
  ---------------------------------------------------
  free energy    TOTEN  =       -28.27910597 eV

  energy without entropy =      -28.27910597


----------------------------------------- Iteration    3(   9)  ---------------------------------------


   POT+DIJ:  cpu time    0.08: real time    0.08
    HAMIL1:  cpu time    0.00: real time    0.00
    LRDIAG:  cpu time    0.01: real time    0.01
    LRDIIS:  cpu time    0.02: real time    0.02
    LRDIAG:  cpu time    0.01: real time    0.01
    MIXING:  cpu time    0.00: real time    0.00
    --------------------------------------------
      LOOP:  cpu time    0.16: real time    0.16

 Broyden mixing:
  rms(total) = 0.82594E-04    rms(broyden)= 0.82569E-04
  rms(prec ) = 0.12651E-03
  weight for this iteration     100.00

 eigenvalues of (default mixing * dielectric matrix)
  average eigenvalue GAMMA=   1.9035
  3.1878  2.7480  2.4306  1.6715  1.2552  1.0836  0.9478

 Free energy of the ion-electron system (eV)
  ---------------------------------------------------
  -1/2 Hartree   DENC   =        -4.62723404
  -V(xc)+E(xc)   XCENC  =         0.95785880
  PAW double counting   =         3.06973636       -3.11864775
  entropy T*S    EENTRO =         0.00000000
  eigenvalues    EBANDS =       -24.56096409
  ---------------------------------------------------
  free energy    TOTEN  =       -28.27925072 eV

  energy without entropy =      -28.27925072


----------------------------------------- Iteration    3(  10)  ---------------------------------------


   POT+DIJ:  cpu time    0.08: real time    0.08
    HAMIL1:  cpu time    0.01: real time    0.01
    LRDIAG:  cpu time    0.01: real time    0.01
    LRDIIS:  cpu time    0.02: real time    0.02
    LRDIAG:  cpu time    0.01: real time    0.01
    MIXING:  cpu time    0.00: real time    0.00
    --------------------------------------------
      LOOP:  cpu time    0.16: real time    0.16

 Broyden mixing:
  rms(total) = 0.90204E-05    rms(broyden)= 0.89969E-05
  rms(prec ) = 0.15410E-04
  weight for this iteration     100.00

 eigenvalues of (default mixing * dielectric matrix)
  average eigenvalue GAMMA=   1.8514
  3.2009  2.7713  2.4509  1.6674  1.5007  0.9582  1.1703  1.0914

 Free energy of the ion-electron system (eV)
  ---------------------------------------------------
  -1/2 Hartree   DENC   =        -4.62737844
  -V(xc)+E(xc)   XCENC  =         0.95789424
  PAW double counting   =         3.07079194       -3.11972138
  entropy T*S    EENTRO =         0.00000000
  eigenvalues    EBANDS =       -24.56107054
  ---------------------------------------------------
  free energy    TOTEN  =       -28.27948417 eV

  energy without entropy =      -28.27948417


----------------------------------------- Iteration    3(  11)  ---------------------------------------


   POT+DIJ:  cpu time    0.08: real time    0.08
    HAMIL1:  cpu time    0.01: real time    0.01
    LRDIAG:  cpu time    0.01: real time    0.01
    LRDIIS:  cpu time    0.02: real time    0.02
    LRDIAG:  cpu time    0.01: real time    0.01
    MIXING:  cpu time    0.00: real time    0.00
    --------------------------------------------
      LOOP:  cpu time    0.16: real time    0.16

 Broyden mixing:
  rms(total) = 0.38351E-05    rms(broyden)= 0.38331E-05
  rms(prec ) = 0.56141E-05
  weight for this iteration     100.00

 eigenvalues of (default mixing * dielectric matrix)
  average eigenvalue GAMMA=   1.8734
  3.2078  2.7904  2.4451  2.2839  1.6669  1.3469  0.9702  1.0438  1.1058

 Free energy of the ion-electron system (eV)
  ---------------------------------------------------
  -1/2 Hartree   DENC   =        -4.62735414
  -V(xc)+E(xc)   XCENC  =         0.95788810
  PAW double counting   =         3.07073118       -3.11965958
  entropy T*S    EENTRO =         0.00000000
  eigenvalues    EBANDS =       -24.56107313
  ---------------------------------------------------
  free energy    TOTEN  =       -28.27946757 eV

  energy without entropy =      -28.27946757


----------------------------------------- Iteration    3(  12)  ---------------------------------------


   POT+DIJ:  cpu time    0.09: real time    0.09
    HAMIL1:  cpu time    0.00: real time    0.01
    LRDIAG:  cpu time    0.01: real time    0.01
    LRDIIS:  cpu time    0.02: real time    0.02
    LRDIAG:  cpu time    0.01: real time    0.01
    MIXING:  cpu time    0.00: real time    0.00
    --------------------------------------------
      LOOP:  cpu time    0.16: real time    0.16

 Broyden mixing:
  rms(total) = 0.11535E-05    rms(broyden)= 0.11532E-05
  rms(prec ) = 0.16894E-05
  weight for this iteration     100.00

 eigenvalues of (default mixing * dielectric matrix)
  average eigenvalue GAMMA=   1.8522
  3.2075  2.8285  2.4646  2.4646  1.6738  1.3786  1.3786  0.9902  1.0350  1.1010

 Free energy of the ion-electron system (eV)
  ---------------------------------------------------
  -1/2 Hartree   DENC   =        -4.62736148
  -V(xc)+E(xc)   XCENC  =         0.95788917
  PAW double counting   =         3.07065839       -3.11958554
  entropy T*S    EENTRO =         0.00000000
  eigenvalues    EBANDS =       -24.56107170
  ---------------------------------------------------
  free energy    TOTEN  =       -28.27947116 eV

  energy without entropy =      -28.27947116


----------------------------------------- Iteration    3(  13)  ---------------------------------------


   POT+DIJ:  cpu time    0.08: real time    0.08
    HAMIL1:  cpu time    0.01: real time    0.01
    LRDIAG:  cpu time    0.01: real time    0.01
    LRDIIS:  cpu time    0.02: real time    0.02
    LRDIAG:  cpu time    0.01: real time    0.01
    MIXING:  cpu time    0.00: real time    0.00
    --------------------------------------------
      LOOP:  cpu time    0.16: real time    0.16

 Broyden mixing:
  rms(total) = 0.29839E-06    rms(broyden)= 0.29827E-06
  rms(prec ) = 0.53973E-06
  weight for this iteration     100.00

 eigenvalues of (default mixing * dielectric matrix)
  average eigenvalue GAMMA=   1.8200
  3.2127  2.8221  2.6297  2.4346  1.6759  1.6759  0.9993  1.0193  1.1027  1.2240
  1.2240

 Free energy of the ion-electron system (eV)
  ---------------------------------------------------
  -1/2 Hartree   DENC   =        -4.62735907
  -V(xc)+E(xc)   XCENC  =         0.95788834
  PAW double counting   =         3.07063026       -3.11955695
  entropy T*S    EENTRO =         0.00000000
  eigenvalues    EBANDS =       -24.56107085
  ---------------------------------------------------
  free energy    TOTEN  =       -28.27946827 eV

  energy without entropy =      -28.27946827


------------------------ aborting loop because EDIFF is reached ----------------------------------------


 change of polarisation eV/A/(eV/A) component  3 :     0.157    -0.170    50.521
 dielectric tensor                  component  3 :     0.174    -0.188    56.857


--------------------------------------------------------------------------------------------------------


    FORLOC:  cpu time    0.00: real time    0.00
    FORNL :  cpu time    0.09: real time    0.09
    STRESS:  cpu time    0.30: real time    0.31
    FORCOR:  cpu time    0.02: real time    0.02
    FORLOC:  cpu time    0.00: real time    0.00
    FORNL :  cpu time    0.09: real time    0.09
    STRESS:  cpu time    0.31: real time    0.31
    FORCOR:  cpu time    0.02: real time    0.02
    FORNLD:  cpu time    0.01: real time    0.01

 PIEZOELECTRIC TENSOR FIELD DIRECTION 3  (e Angst)
 -----------------------------------------------------------------------------
    -0.00589  0.00084  0.00038           (  0.00001  0.00002  0.00000)
     0.00084  0.00391  0.00151           (  0.00002  0.00001  0.00002)
     0.00038  0.00151 -0.00231           (  0.00000  0.00002 -0.00002)

 PIEZOELECTRIC TENSOR FIELD DIRECTION 3  (C/m^2)
 -----------------------------------------------------------------------------
    -0.00058  0.00008  0.00004
     0.00008  0.00038  0.00015
     0.00004  0.00015 -0.00023


      POSITION         DIRECTION 3           BORN EFFECTIVE CHARGE    (rigid.aug.   ionic)
 -----------------------------------------------------------------------------------------
      0.00121      0.00000      0.00220     0.04146  0.12968 -5.81330 (  0.21591  4.00000)
      1.36750      1.36970      1.36600     0.05881 -0.04849 -5.76212 (  0.21594  4.00000)
      2.73720      2.73350      5.46645    -0.03087  0.08991 -5.76869 (  0.21594  4.00000)
      4.10100      4.09895      1.36633     0.09046  0.02941 -5.80971 (  0.21591  4.00000)
      2.73145      5.46883      2.73486    -0.05388 -0.08062 -5.78834 (  0.21592  4.00000)
      4.10133      1.36736      4.09915    -0.07318 -0.01764 -5.76134 (  0.21594  4.00000)
      5.46986      2.73165      2.73511     0.02222 -0.11595 -5.74023 (  0.21594  4.00000)
      1.36415      4.10261      4.10130    -0.09941  0.05407 -5.76690 (  0.21593  4.00000)
 -----------------------------------------------------------------------------------------
    total drift (improves with k-points):  -0.04439  0.04037-46.21063




--------------------------------------------------------------------------------------------------------


  LATTYP: Found a simple cubic cell.
 ALAT       =     5.4700000000
  
  Lattice vectors:
  
 A1 = (   5.4700000000,   0.0000000000,   0.0000000000)
 A2 = (   0.0000000000,   5.4700000000,   0.0000000000)
 A3 = (   0.0000000000,   0.0000000000,   5.4700000000)


Analysis of symmetry for initial positions (statically):
=====================================================================
 Subroutine PRICEL returns:
 Original cell was already a primitive cell.
 

 Routine SETGRP: Setting up the symmetry group for a 
 simple cubic supercell.


 Subroutine GETGRP returns: Found  1 space group operations
 (whereof  1 operations were pure point group operations)
 out of a pool of 48 trial point group operations.


The static configuration has the point symmetry C_1 .


Analysis of symmetry for dynamics (positions and initial velocities):
=====================================================================
 Subroutine PRICEL returns:
 Original cell was already a primitive cell.
 

 Routine SETGRP: Setting up the symmetry group for a 
 simple cubic supercell.


 Subroutine GETGRP returns: Found  1 space group operations
 (whereof  1 operations were pure point group operations)
 out of a pool of 48 trial point group operations.


The dynamic configuration has the point symmetry C_1 .


 MACROSCOPIC STATIC DIELECTRIC TENSOR (including local field effects in DFT)
 ------------------------------------------------------
          56.863319    -0.189264     0.173806
          -0.189270    56.853733    -0.188039
           0.173802    -0.188047    56.857023
 ------------------------------------------------------



--------------------------------------------------------------------------------------------------------


  LATTYP: Found a simple cubic cell.
 ALAT       =     5.4700000000
  
  Lattice vectors:
  
 A1 = (   5.4700000000,   0.0000000000,   0.0000000000)
 A2 = (   0.0000000000,   5.4700000000,   0.0000000000)
 A3 = (   0.0000000000,   0.0000000000,   5.4700000000)


Analysis of symmetry for initial positions (statically):
=====================================================================
 Subroutine PRICEL returns:
 Original cell was already a primitive cell.
 

 Routine SETGRP: Setting up the symmetry group for a 
 simple cubic supercell.


 Subroutine GETGRP returns: Found  1 space group operations
 (whereof  1 operations were pure point group operations)
 out of a pool of 48 trial point group operations.


The static configuration has the point symmetry C_1 .


Analysis of symmetry for dynamics (positions and initial velocities):
=====================================================================
 Subroutine PRICEL returns:
 Original cell was already a primitive cell.
 

 Routine SETGRP: Setting up the symmetry group for a 
 simple cubic supercell.


 Subroutine GETGRP returns: Found  1 space group operations
 (whereof  1 operations were pure point group operations)
 out of a pool of 48 trial point group operations.


The dynamic configuration has the point symmetry C_1 .
 
 KPOINTS: Automatic mesh                          

Automatic generation of k-mesh.
Space group operators:
 irot       det(A)        alpha          n_x          n_y          n_z        tau_x        tau_y        tau_z
    1     1.000000     0.000001     1.000000     0.000000     0.000000     0.000000     0.000000     0.000000
 
 Subroutine IBZKPT returns following result:
 ===========================================
 
 Found      1 irreducible k-points:
 
 Following reciprocal coordinates:
            Coordinates               Weight
  0.000000  0.000000  0.000000      1.000000
 
 Following cartesian coordinates:
            Coordinates               Weight
  0.000000  0.000000  0.000000      1.000000
 


--------------------------------------------------------------------------------------------------------




 MACROSCOPIC STATIC DIELECTRIC TENSOR (including local field effects in DFT)
 ------------------------------------------------------
          56.863319    -0.189264     0.173806
          -0.189270    56.853733    -0.188039
           0.173802    -0.188047    56.857023
 ------------------------------------------------------


 PIEZOELECTRIC TENSOR  for field in x, y, z        (e  Angst)
          XX          YY          ZZ          XY          YZ          ZX
  --------------------------------------------------------------------------------
  x    -0.00229    -0.00236     0.00755     0.00155    -0.00018     0.00198
  y     0.00091     0.00068     0.00143    -0.00237    -0.00148    -0.00292
  z    -0.00589     0.00391    -0.00231     0.00084     0.00151     0.00038

 PIEZOELECTRIC TENSOR  for field in x, y, z        (C/m^2)
          XX          YY          ZZ          XY          YZ          ZX
  --------------------------------------------------------------------------------
  x    -0.00022    -0.00023     0.00074     0.00015    -0.00002     0.00019
  y     0.00009     0.00007     0.00014    -0.00023    -0.00014    -0.00029
  z    -0.00058     0.00038    -0.00023     0.00008     0.00015     0.00004
 
 BORN EFFECTIVE CHARGES (in e, cummulative output)
 -------------------------------------------------
 ion    1
    1    -5.80481     0.01340    -0.02230
    2     0.05964    -5.82640    -0.14838
    3     0.04146     0.12968    -5.81330
 ion    2
    1    -5.74793     0.01334    -0.16523
    2     0.03338    -5.74009    -0.00363
    3     0.05881    -0.04849    -5.76212
 ion    3
    1    -5.77063    -0.00231     0.02807
    2    -0.04919    -5.74655    -0.08017
    3    -0.03087     0.08991    -5.76869
 ion    4
    1    -5.81135    -0.00499    -0.11258
    2    -0.02446    -5.82008    -0.00273
    3     0.09046     0.02941    -5.80971
 ion    5
    1    -5.79488    -0.03711     0.01243
    2     0.02696    -5.81015     0.08818
    3    -0.05388    -0.08062    -5.78834
 ion    6
    1    -5.77388     0.07436     0.15202
    2    -0.03707    -5.75238     0.01364
    3    -0.07318    -0.01764    -5.76134
 ion    7
    1    -5.73897     0.04351    -0.03833
    2    -0.01833    -5.72436     0.16024
    3     0.02222    -0.11595    -5.74023
 ion    8
    1    -5.76904    -0.05919     0.10147
    2     0.05021    -5.78985     0.01289
    3    -0.09941     0.05407    -5.76690


--------------------------------------------------------------------------------------------------------


     LOOP+:  cpu time   21.13: real time   21.67
    4ORBIT:  cpu time    0.00: real time    0.00

 total amount of memory used by VASP on root node    32224. kBytes
========================================================================

   base      :      30000. kBytes
   nonl-proj :        202. kBytes
   fftplans  :        782. kBytes
   grid      :       1198. kBytes
   one-center:         24. kBytes
   wavefun   :         18. kBytes
 
  
  
 General timing and accounting informations for this job:
 ========================================================
  
                  Total CPU time used (sec):       22.885
                            User time (sec):       16.844
                          System time (sec):        6.040
                         Elapsed time (sec):       24.884
  
                   Maximum memory used (kb):       72744.
                   Average memory used (kb):           0.
  
                          Minor page faults:       199990
                          Major page faults:            0
                 Voluntary context switches:         1427
