 vasp.5.3.3 18Dez12 (build Jan  9 2014 12:00:49) complex                        
  
 executed on             LinuxIFC date 2014.01.29  10:09:06
 running on   48 total cores
 distrk:  each k-point on   48 cores,    1 groups
 distr:  one band on NCORES_PER_BAND=   1 cores,   48 groups


--------------------------------------------------------------------------------------------------------


 INCAR:
 POTCAR:    PAW Si                                

 ----------------------------------------------------------------------------- 
|                                                                             |
|           W    W    AA    RRRRR   N    N  II  N    N   GGGG   !!!           |
|           W    W   A  A   R    R  NN   N  II  NN   N  G    G  !!!           |
|           W    W  A    A  R    R  N N  N  II  N N  N  G       !!!           |
|           W WW W  AAAAAA  RRRRR   N  N N  II  N  N N  G  GGG   !            |
|           WW  WW  A    A  R   R   N   NN  II  N   NN  G    G                |
|           W    W  A    A  R    R  N    N  II  N    N   GGGG   !!!           |
|                                                                             |
|      For optimal performance we recommend that you set                      |
|        NPAR = 4 - approx SQRT( number of cores)                             |
|      (number of cores/NPAR must be integer)                                 |
|      This setting will greatly improve the performance of VASP for DFT.     |
|      The default NPAR=number of cores might be grossly inefficient          |
|      on modern multi-core architectures or massively parallel machines.     |
|      Do your own testing.                                                   |
|      Unfortunately you need to use the default for hybrid, GW and RPA       |
|      calculations.                                                          |
|                                                                             |
 ----------------------------------------------------------------------------- 

 POTCAR:    PAW Si                                
   VRHFIN =Si: s2p2                                                             
   LEXCH  = 91                                                                  
   EATOM  =   103.3076 eV,    7.5929 Ry                                         
                                                                                
   TITEL  = PAW Si                                                              
   LULTRA =        F    use ultrasoft PP ?                                      
   IUNSCR =        1    unscreen: 0-lin 1-nonlin 2-no                           
   RPACOR =    1.500    partial core radius                                     
   POMASS =   28.085; ZVAL   =    4.000    mass and valenz                      
   RCORE  =    1.900    outmost cutoff radius                                   
   RWIGS  =    2.480; RWIGS  =    1.312    wigner-seitz radius (au A)           
   ENMAX  =  245.435; ENMIN  =  184.076 eV                                      
   ICORE  =        2    local potential                                         
   LCOR   =        T    correct aug charges                                     
   LPAW   =        T    paw PP                                                  
   EAUG   =  322.069                                                            
   DEXC   =    -.001                                                            
   RMAX   =    2.943    core radius for proj-oper                               
   RAUG   =    1.300    factor for augmentation sphere                          
   RDEP   =    1.993    core radius for depl-charge                             
   QCUT   =   -4.247; QGAM   =    8.494    optimization parameters              
                                                                                
   Description                                                                  
     l     E      TYP  RCUT    TYP  RCUT                                        
     0   .000     23  1.900                                                     
     0   .000     23  1.900                                                     
     1   .000     23  1.900                                                     
     1   .000     23  1.900                                                     
     2   .000      7  1.900                                                     
  local pseudopotential read in
  partial core-charges read in
  atomic valenz-charges read in
  non local Contribution for L=           0  read in
    real space projection operators read in
  non local Contribution for L=           0  read in
    real space projection operators read in
  non local Contribution for L=           1  read in
    real space projection operators read in
  non local Contribution for L=           1  read in
    real space projection operators read in
    PAW grid and wavefunctions read in
 
   number of l-projection  operators is LMAX  =           4
   number of lm-projection operators is LMMAX =           8
 
  PAW Si                                :
 energy of atom  1       EATOM= -103.3076
 kinetic energy error for atom=    0.0109 (will be added to EATOM!!)
 
 
 POSCAR: OUTCAR.0018.+1.out 1.0e-02              
  positions in cartesian coordinates
  No initial velocities read in
 exchange correlation table for  LEXCH =        7
   RHO(1)=    0.500       N(1)  =     2000
   RHO(2)=  100.500       N(2)  =     4000

 VTST: version 3.0c, (01/09/14)

 CHAIN: initializing optimizer
 
 OPT: Using VASP Dynamics algorithm
 CHAIN: Read ICHAIN            0
 
 POSCAR: OUTCAR.0018.+1.out 1.0e-02              
  positions in cartesian coordinates
  No initial velocities read in
 


--------------------------------------------------------------------------------------------------------


 ion  position               nearest neighbor table
   1  0.000  0.000  0.000-   2 2.37   6 2.37   4 2.37   8 2.37
   2  0.250  0.250  0.250-   1 2.37   3 2.37   5 2.37   7 2.37
   3  0.500  0.500  0.999-   6 2.36   8 2.37   4 2.37   2 2.37
   4  0.750  0.749  0.250-   7 2.37   3 2.37   1 2.37   5 2.37
   5  0.499  1.000  0.500-   8 2.36   2 2.37   4 2.37   6 2.37
   6  0.750  0.250  0.751-   3 2.36   1 2.37   5 2.37   7 2.37
   7  0.000  0.501  0.500-   4 2.37   8 2.37   2 2.37   6 2.37
   8  0.251  0.750  0.750-   5 2.36   3 2.37   7 2.37   1 2.37
 
  LATTYP: Found a simple cubic cell.
 ALAT       =     5.4700000000
  
  Lattice vectors:
  
 A1 = (   5.4700000000,   0.0000000000,   0.0000000000)
 A2 = (   0.0000000000,   5.4700000000,   0.0000000000)
 A3 = (   0.0000000000,   0.0000000000,   5.4700000000)


Analysis of symmetry for initial positions (statically):
=====================================================================
 Subroutine PRICEL returns:
 Original cell was already a primitive cell.
 

 Routine SETGRP: Setting up the symmetry group for a 
 simple cubic supercell.


 Subroutine GETGRP returns: Found  1 space group operations
 (whereof  1 operations were pure point group operations)
 out of a pool of 48 trial point group operations.


The static configuration has the point symmetry C_1 .


Analysis of symmetry for dynamics (positions and initial velocities):
=====================================================================
 Subroutine PRICEL returns:
 Original cell was already a primitive cell.
 

 Routine SETGRP: Setting up the symmetry group for a 
 simple cubic supercell.


 Subroutine GETGRP returns: Found  1 space group operations
 (whereof  1 operations were pure point group operations)
 out of a pool of 48 trial point group operations.


The dynamic configuration has the point symmetry C_1 .


 irot  :   1
 --------------------------------------------------------------------
 isymop:   1   0   0
           0   1   0
           0   0   1

 gtrans:     0.0000000     0.0000000     0.0000000

 ptrans:     0.0000000     0.0000000     0.0000000
 rotmap:
 (   1->   1)  (   2->   2)  (   3->   3)  (   4->   4)  (   5->   5) 
 (   6->   6)  (   7->   7)  (   8->   8) 
 
 
 KPOINTS: Automatic mesh                          

Automatic generation of k-mesh.
Space group operators:
 irot       det(A)        alpha          n_x          n_y          n_z        tau_x        tau_y        tau_z
    1     1.000000     0.000001     1.000000     0.000000     0.000000     0.000000     0.000000     0.000000
 
 Subroutine IBZKPT returns following result:
 ===========================================
 
 Found      1 irreducible k-points:
 
 Following reciprocal coordinates:
            Coordinates               Weight
  0.000000  0.000000  0.000000      1.000000
 
 Following cartesian coordinates:
            Coordinates               Weight
  0.000000  0.000000  0.000000      1.000000
 
 
 Subroutine IBZKPT_HF returns following result:
 ==============================================
 
 Found      1 k-points in 1st BZ
 the following      1 k-points will be used (e.g. in the exchange kernel)
 Following reciprocal coordinates:   # in IRBZ
  0.000000  0.000000  0.000000       1 t-inv F


--------------------------------------------------------------------------------------------------------




 Dimension of arrays:
   k-points           NKPTS =      1   k-points in BZ     NKDIM =      1   number of bands    NBANDS=     48
   number of dos      NEDOS =    301   number of ions     NIONS =      8
   non local maximal  LDIM  =      4   non local SUM 2l+1 LMDIM =      8
   total plane-waves  NPLWV =  21952
   max r-space proj   IRMAX =      1   max aug-charges    IRDMAX=  36071
   dimension x,y,z NGX =    28 NGY =   28 NGZ =   28
   dimension x,y,z NGXF=    56 NGYF=   56 NGZF=   56
   support grid    NGXF=   112 NGYF=  112 NGZF=  112
   ions per type =               8
 NGX,Y,Z   is equivalent  to a cutoff of   8.51,  8.51,  8.51 a.u.
 NGXF,Y,Z  is equivalent  to a cutoff of  17.02, 17.02, 17.02 a.u.


 I would recommend the setting:
   dimension x,y,z NGX =    19 NGY =   19 NGZ =   19
 SYSTEM =  NAPTHA04                                
 POSCAR =  OUTCAR.0018.+1.out 1.0e-02              

 Startparameter for this run:
   NWRITE =      3    write-flag & timer
   PREC   = normal    normal or accurate (medium, high low for compatibility)
   ISTART =      0    job   : 0-new  1-cont  2-samecut
   ICHARG =      2    charge: 1-file 2-atom 10-const
   ISPIN  =      1    spin polarized calculation?
   LNONCOLLINEAR =      F non collinear calculations
   LSORBIT =      F    spin-orbit coupling
   INIWAV =      1    electr: 0-lowe 1-rand  2-diag
   LASPH  =      F    aspherical Exc in radial PAW
   METAGGA=      F    non-selfconsistent MetaGGA calc.

 Electronic Relaxation 1
   ENCUT  =  200.0 eV  14.70 Ry    3.83 a.u.   6.31  6.31  6.31*2*pi/ulx,y,z
   ENINI  =  200.0     initial cutoff
   ENAUG  =  322.1 eV  augmentation charge cutoff
   NELM   =     60;   NELMIN=  2; NELMDL= -5     # of ELM steps 
   EDIFF  = 0.1E-07   stopping-criterion for ELM
   LREAL  =      F    real-space projection
   NLSPLINE    = F    spline interpolate recip. space projectors
   LCOMPAT=      F    compatible to vasp.4.4
   GGA_COMPAT  = T    GGA compatible to vasp.4.4-vasp.4.6
   LMAXPAW     = -100 max onsite density
   LMAXMIX     =    2 max onsite mixed and CHGCAR
   VOSKOWN=      0    Vosko Wilk Nusair interpolation
   ROPT   =    0.00000
 Ionic relaxation
   EDIFFG = 0.1E-06   stopping-criterion for IOM
   NSW    =      0    number of steps for IOM
   NBLOCK =      1;   KBLOCK =      1    inner block; outer block 
   IBRION =     -1    ionic relax: 0-MD 1-quasi-New 2-CG
   NFREE  =      0    steps in history (QN), initial steepest desc. (CG)
   ISIF   =      2    stress and relaxation
   IWAVPR =     10    prediction:  0-non 1-charg 2-wave 3-comb
   ISYM   =      2    0-nonsym 1-usesym 2-fastsym
   LCORR  =      T    Harris-Foulkes like correction to forces

   POTIM  = 0.5000    time-step for ionic-motion
   TEIN   =    0.0    initial temperature
   TEBEG  =    0.0;   TEEND  =   0.0 temperature during run
   SMASS  =  -3.00    Nose mass-parameter (am)
   estimated Nose-frequenzy (Omega)   =  0.10E-29 period in steps =****** mass=  -0.684E-27a.u.
   SCALEE = 1.0000    scale energy and forces
   NPACO  =    256;   APACO  = 16.0  distance and # of slots for P.C.
   PSTRESS=    0.0 pullay stress

  Mass of Ions in am
   POMASS =  28.09
  Ionic Valenz
   ZVAL   =   4.00
  Atomic Wigner-Seitz radii
   RWIGS  =  -1.00
  virtual crystal weights 
   VCA    =   1.00
   NELECT =      32.0000    total number of electrons
   NUPDOWN=      -1.0000    fix difference up-down

 DOS related values:
   EMIN   =  10.00;   EMAX   =-10.00  energy-range for DOS
   EFERMI =   0.00
   ISMEAR =     0;   SIGMA  =   0.02  broadening in eV -4-tet -1-fermi 0-gaus

 Electronic relaxation 2 (details)
   IALGO  =     68    algorithm
   LDIAG  =      T    sub-space diagonalisation (order eigenvalues)
   LSUBROT=      T    optimize rotation matrix (better conditioning)
   TURBO    =      0    0=normal 1=particle mesh
   IRESTART =      0    0=no restart 2=restart with 2 vectors
   NREBOOT  =      0    no. of reboots
   NMIN     =      0    reboot dimension
   EREF     =   0.00    reference energy to select bands
   IMIX   =      4    mixing-type and parameters
     AMIX     =   0.40;   BMIX     =  1.00
     AMIX_MAG =   1.60;   BMIX_MAG =  1.00
     AMIN     =   0.10
     WC   =   100.;   INIMIX=   1;  MIXPRE=   1;  MAXMIX= -45

 Intra band minimization:
   WEIMIN = 0.0000     energy-eigenvalue tresh-hold
   EBREAK =  0.52E-10  absolut break condition
   DEPER  =   0.30     relativ break condition  

   TIME   =   0.40     timestep for ELM

  volume/ion in A,a.u.               =      20.46       138.06
  Fermi-wavevector in a.u.,A,eV,Ry     =   0.950176  1.795573 12.283814  0.902835
  Thomas-Fermi vector in A             =   2.078528
 
 Write flags
   LWAVE  =      F    write WAVECAR
   LCHARG =      F    write CHGCAR
   LVTOT  =      F    write LOCPOT, total local potential
   LVHAR  =      F    write LOCPOT, Hartree potential only
   LELF   =      F    write electronic localiz. function (ELF)
   LORBIT =      0    0 simple, 1 ext, 2 COOP (PROOUT)


 Dipole corrections
   LMONO  =      F    monopole corrections only (constant potential shift)
   LDIPOL =      F    correct potential (dipole corrections)
   IDIPOL =      0    1-x, 2-y, 3-z, 4-all directions 
   EPSILON=  1.0000000 bulk dielectric constant

 Exchange correlation treatment:
   GGA     =    --    GGA type
   LEXCH   =     7    internal setting for exchange type
   VOSKOWN=      0    Vosko Wilk Nusair interpolation
   LHFCALC =     F    Hartree Fock is set to
   LHFONE  =     F    Hartree Fock one center treatment
   AEXX    =    0.0000 exact exchange contribution

 Linear response parameters
   LEPSILON=     T    determine dielectric tensor
   LRPA    =     F    only Hartree local field effects (RPA)
   LNABLA  =     F    use nabla operator in PAW spheres
   LVEL    =     F    velocity operator in full k-point grid
   LINTERFAST=   F  fast interpolation
   KINTER  =     0    interpolate to denser k-point grid
   CSHIFT  =0.1000    complex shift for real part using Kramers Kronig
   OMEGAMAX=  -1.0    maximum frequency
   DEG_THRESHOLD= 0.2000000E-02 threshold for treating states as degnerate
   RTIME   =    0.100 relaxation time in fs

 Orbital magnetization related:
   ORBITALMAG=     F  switch on orbital magnetization
   LCHIMAG   =     F  perturbation theory with respect to B field
   DQ        =  0.001000  dq finite difference perturbation B field



--------------------------------------------------------------------------------------------------------


 Static calculation
 charge density and potential will be updated during run
 non-spin polarized calculation
 RMM-DIIS sequential band-by-band and
  variant of blocked Davidson during initial phase
 perform sub-space diagonalisation
    before iterative eigenvector-optimisation
 modified Broyden-mixing scheme, WC =      100.0
 initial mixing is a Kerker type mixing with AMIX =  0.4000 and BMIX =      1.0000
 Hartree-type preconditioning will be used
 using additional bands           32
 reciprocal scheme for non local part
 use partial core corrections
 calculate Harris-corrections to forces 
   (improved forces if not selfconsistent)
 use gradient corrections 
 use of overlap-Matrix (Vanderbilt PP)
 Gauss-broadening in eV      SIGMA  =   0.02


--------------------------------------------------------------------------------------------------------


  energy-cutoff  :      200.00
  volume of cell :      163.67
      direct lattice vectors                 reciprocal lattice vectors
     5.470000000  0.000000000  0.000000000     0.182815356  0.000000000  0.000000000
     0.000000000  5.470000000  0.000000000     0.000000000  0.182815356  0.000000000
     0.000000000  0.000000000  5.470000000     0.000000000  0.000000000  0.182815356

  length of vectors
     5.470000000  5.470000000  5.470000000     0.182815356  0.182815356  0.182815356


 
 k-points in units of 2pi/SCALE and weight: Automatic mesh                          
   0.00000000  0.00000000  0.00000000       1.000
 
 k-points in reciprocal lattice and weights: Automatic mesh                          
   0.00000000  0.00000000  0.00000000       1.000
 
 position of ions in fractional coordinates (direct lattice) 
   0.00022313  0.00000047  0.00040069
   0.25000047  0.25040069  0.24972614
   0.50040069  0.49972614  0.99934964
   0.74972614  0.74934964  0.24978587
   0.49934964  0.99978587  0.50002622
   0.74978587  0.25002622  0.75061332
   0.00002622  0.50061332  0.49998006
   0.25061332  0.74998006  0.75021888
 
 position of ions in cartesian coordinates  (Angst):
   0.00122051  0.00000257  0.00219179
   1.36750257  1.36969179  1.36600201
   2.73719179  2.73350201  5.46644252
   4.10100201  4.09894252  1.36632869
   2.73144252  5.46882869  2.73514342
   4.10132869  1.36764342  4.10585483
   0.00014342  2.73835483  2.73489092
   1.37085483  4.10239092  4.10369729
 


--------------------------------------------------------------------------------------------------------


 k-point  1 :   0.0000 0.0000 0.0000  plane waves:    1021

 maximum and minimum number of plane-waves per node :      1021     1021

 maximum number of plane-waves:      1021
 maximum index in each direction: 
   IXMAX=    6   IYMAX=    6   IZMAX=    6
   IXMIN=   -6   IYMIN=   -6   IZMIN=   -6

 NGX is ok and might be reduce to  26
 NGY is ok and might be reduce to  26
 NGZ is ok and might be reduce to  26

 serial   3D FFT for wavefunctions
 parallel 3D FFT for charge:
    minimum data exchange during FFTs selected (reduces bandwidth)


 total amount of memory used by VASP on root node    32224. kBytes
========================================================================

   base      :      30000. kBytes
   nonl-proj :        202. kBytes
   fftplans  :        782. kBytes
   grid      :       1198. kBytes
   one-center:         24. kBytes
   wavefun   :         18. kBytes
 
 Broyden mixing: mesh for mixing (old mesh)
   NGX = 13   NGY = 13   NGZ = 13
  (NGX  = 56   NGY  = 56   NGZ  = 56)
  gives a total of   2197 points

 initial charge density was supplied:
 charge density of overlapping atoms calculated
 number of electron      32.0000000 magnetization 
 keeping initial charge density in first step


--------------------------------------------------------------------------------------------------------


 Maximum index for augmentation-charges         1782 (set IRDMAX)


--------------------------------------------------------------------------------------------------------


 First call to EWALD:  gamma=   0.324
 Maximum number of real-space cells 3x 3x 3
 Maximum number of reciprocal cells 3x 3x 3

 FEWALD executed in parallel
    FEWALD:  cpu time    0.00: real time    0.00


----------------------------------------- Iteration    1(   1)  ---------------------------------------


    POTLOK:  cpu time    0.03: real time    0.03
    SETDIJ:  cpu time    0.02: real time    0.02
     EDDAV:  cpu time    0.41: real time    0.41
       DOS:  cpu time    0.00: real time    0.00
    --------------------------------------------
      LOOP:  cpu time    0.46: real time    0.48

 eigenvalue-minimisations  :    96
 total energy-change (2. order) :-0.1013921E+02  (-0.7956025E+03)
 number of electron      32.0000000 magnetization 
 augmentation part       32.0000000 magnetization 

 Free energy of the ion-electron system (eV)
  ---------------------------------------------------
  alpha Z        PSCENC =        12.68944982
  Ewald energy   TEWEN  =      -907.56602371
  -1/2 Hartree   DENC   =       -45.63681154
  -exchange  EXHF       =         0.00000000
  -V(xc)+E(xc)   XCENC  =       -76.79670372
  PAW double counting   =       265.93453375     -123.69690146
  entropy T*S    EENTRO =        -0.00021961
  eigenvalues    EBANDS =        38.55948824
  atomic energy  EATOM  =       826.37398168
  ---------------------------------------------------
  free energy    TOTEN  =       -10.13920656 eV

  energy without entropy =      -10.13898695  energy(sigma->0) =      -10.13909675


--------------------------------------------------------------------------------------------------------




 average (electrostatic) potential at core
  the test charge radii are     0.9892
  (the norm of the test charge is              1.0000)
       1 -84.3484       2 -84.3498       3 -84.3596       4 -84.3501       5 -84.3473
       6 -84.3487       7 -84.3473       8 -84.3539
 
 
 
 E-fermi :   6.6056     XC(G=0):  -9.5533     alpha+bet :-11.7379


 k-point   1 :       0.0000    0.0000    0.0000
  band No.  band energies     occupation 
      1      -6.5896      2.00000
      2      -2.4105      2.00000
      3      -2.2492      2.00000
      4      -2.1223      2.00000
      5      -2.0313      2.00000
      6      -1.8749      2.00000
      7      -1.6781      2.00000
      8       2.7440      2.00000
      9       2.8512      2.00000
     10       2.9954      2.00000
     11       3.1579      2.00000
     12       3.3436      2.00000
     13       4.0772      2.00000
     14       6.1398      2.00000
     15       6.3639      2.00000
     16       6.5625      1.99766
     17       6.6486      0.00234
     18       6.8159      0.00000
     19       6.9070      0.00000
     20       7.1738      0.00000
     21       7.3737      0.00000
     22       8.0528      0.00000
     23       8.9811      0.00000
     24       9.3740      0.00000
     25      10.4527      0.00000
     26      11.4542      0.00000
     27      13.5068      0.00000
     28      14.7759      0.00000
     29      16.5551      0.00000
     30      16.8983      0.00000
     31      17.3620      0.00000
     32      17.5894      0.00000
     33      17.9267      0.00000
     34      18.1262      0.00000
     35      18.4952      0.00000
     36      18.8791      0.00000
     37      19.3713      0.00000
     38      19.5114      0.00000
     39      19.8614      0.00000
     40      20.2501      0.00000
     41      21.0871      0.00000
     42      21.6773      0.00000
     43      22.1783      0.00000
     44      22.7581      0.00000
     45      23.9075      0.00000
     46      24.4010      0.00000
     47      24.8002      0.00000
     48      25.8412      0.00000


--------------------------------------------------------------------------------------------------------


 soft charge-density along one line, spin component           1
         0         1         2         3         4         5         6         7         8         9
 total charge-density along one line
 
 pseudopotential strength for first ion, spin component:           1
 18.662   0.000   0.000   0.000   0.000   0.000   0.000   0.000
  0.000   0.006   0.000   0.000   0.000   0.000   0.000   0.000
  0.000   0.000   4.216   0.000   0.000  -0.004   0.000   0.000
  0.000   0.000   0.000   4.216   0.000   0.000  -0.004   0.000
  0.000   0.000   0.000   0.000   4.216   0.000   0.000  -0.004
  0.000   0.000  -0.004   0.000   0.000   0.005   0.000   0.000
  0.000   0.000   0.000  -0.004   0.000   0.000   0.005   0.000
  0.000   0.000   0.000   0.000  -0.004   0.000   0.000   0.005
 total augmentation occupancy for first ion, spin component:           1
  2.000   0.000   0.000   0.000   0.000   0.000   0.000   0.000
  0.000   0.000   0.000   0.000   0.000   0.000   0.000   0.000
  0.000   0.000   0.667   0.000   0.000   0.000   0.000   0.000
  0.000   0.000   0.000   0.667   0.000   0.000   0.000   0.000
  0.000   0.000   0.000   0.000   0.667   0.000   0.000   0.000
  0.000   0.000   0.000   0.000   0.000   0.000   0.000   0.000
  0.000   0.000   0.000   0.000   0.000   0.000   0.000   0.000
  0.000   0.000   0.000   0.000   0.000   0.000   0.000   0.000


----------------------------------------- Iteration    1(   2)  ---------------------------------------


     EDDAV:  cpu time    0.98: real time    0.98
       DOS:  cpu time    0.00: real time    0.00
    --------------------------------------------
      LOOP:  cpu time    0.98: real time    0.99

 eigenvalue-minimisations  :   144
 total energy-change (2. order) :-0.2431104E+02  (-0.2430879E+02)
 number of electron      32.0000000 magnetization 
 augmentation part       32.0000000 magnetization 

 Free energy of the ion-electron system (eV)
  ---------------------------------------------------
  alpha Z        PSCENC =        12.68944982
  Ewald energy   TEWEN  =      -907.56602371
  -1/2 Hartree   DENC   =       -45.63681154
  -exchange  EXHF       =         0.00000000
  -V(xc)+E(xc)   XCENC  =       -76.79670372
  PAW double counting   =       265.93453375     -123.69690146
  entropy T*S    EENTRO =         0.00000000
  eigenvalues    EBANDS =        14.24823003
  atomic energy  EATOM  =       826.37398168
  ---------------------------------------------------
  free energy    TOTEN  =       -34.45024516 eV

  energy without entropy =      -34.45024516  energy(sigma->0) =      -34.45024516


--------------------------------------------------------------------------------------------------------




 average (electrostatic) potential at core
  the test charge radii are     0.9892
  (the norm of the test charge is              1.0000)
       1 -84.3484       2 -84.3498       3 -84.3596       4 -84.3501       5 -84.3473
       6 -84.3487       7 -84.3473       8 -84.3539
 
 
 
 E-fermi :   5.2506     XC(G=0):  -9.5533     alpha+bet :-11.7379


 k-point   1 :       0.0000    0.0000    0.0000
  band No.  band energies     occupation 
      1      -6.6372      2.00000
      2      -2.6491      2.00000
      3      -2.6401      2.00000
      4      -2.6344      2.00000
      5      -2.6216      2.00000
      6      -2.6158      2.00000
      7      -2.6140      2.00000
      8       2.3731      2.00000
      9       2.3775      2.00000
     10       2.3800      2.00000
     11       2.3832      2.00000
     12       2.3860      2.00000
     13       2.3962      2.00000
     14       5.0690      2.00000
     15       5.0804      2.00000
     16       5.0910      2.00000
     17       6.1469      0.00000
     18       6.1481      0.00000
     19       6.1542      0.00000
     20       6.1552      0.00000
     21       6.1628      0.00000
     22       6.1726      0.00000
     23       7.8528      0.00000
     24       7.8578      0.00000
     25       7.8611      0.00000
     26       8.1267      0.00000
     27      13.2003      0.00000
     28      13.2618      0.00000
     29      13.2699      0.00000
     30      15.0995      0.00000
     31      15.1343      0.00000
     32      15.1776      0.00000
     33      15.2479      0.00000
     34      15.3090      0.00000
     35      15.6288      0.00000
     36      16.3790      0.00000
     37      16.4192      0.00000
     38      16.4560      0.00000
     39      16.5270      0.00000
     40      16.7195      0.00000
     41      16.7486      0.00000
     42      16.7707      0.00000
     43      16.8695      0.00000
     44      17.2187      0.00000
     45      17.9074      0.00000
     46      17.9553      0.00000
     47      17.9857      0.00000
     48      18.0198      0.00000


--------------------------------------------------------------------------------------------------------


 soft charge-density along one line, spin component           1
         0         1         2         3         4         5         6         7         8         9
 total charge-density along one line
 
 pseudopotential strength for first ion, spin component:           1
 18.662   0.000   0.000   0.000   0.000   0.000   0.000   0.000
  0.000   0.006   0.000   0.000   0.000   0.000   0.000   0.000
  0.000   0.000   4.216   0.000   0.000  -0.004   0.000   0.000
  0.000   0.000   0.000   4.216   0.000   0.000  -0.004   0.000
  0.000   0.000   0.000   0.000   4.216   0.000   0.000  -0.004
  0.000   0.000  -0.004   0.000   0.000   0.005   0.000   0.000
  0.000   0.000   0.000  -0.004   0.000   0.000   0.005   0.000
  0.000   0.000   0.000   0.000  -0.004   0.000   0.000   0.005
 total augmentation occupancy for first ion, spin component:           1
  2.000   0.000   0.000   0.000   0.000   0.000   0.000   0.000
  0.000   0.000   0.000   0.000   0.000   0.000   0.000   0.000
  0.000   0.000   0.667   0.000   0.000   0.000   0.000   0.000
  0.000   0.000   0.000   0.667   0.000   0.000   0.000   0.000
  0.000   0.000   0.000   0.000   0.667   0.000   0.000   0.000
  0.000   0.000   0.000   0.000   0.000   0.000   0.000   0.000
  0.000   0.000   0.000   0.000   0.000   0.000   0.000   0.000
  0.000   0.000   0.000   0.000   0.000   0.000   0.000   0.000


----------------------------------------- Iteration    1(   3)  ---------------------------------------


     EDDAV:  cpu time    0.40: real time    0.40
       DOS:  cpu time    0.00: real time    0.00
    --------------------------------------------
      LOOP:  cpu time    0.40: real time    0.40

 eigenvalue-minimisations  :    96
 total energy-change (2. order) :-0.1673477E+00  (-0.1673477E+00)
 number of electron      32.0000000 magnetization 
 augmentation part       32.0000000 magnetization 

 Free energy of the ion-electron system (eV)
  ---------------------------------------------------
  alpha Z        PSCENC =        12.68944982
  Ewald energy   TEWEN  =      -907.56602371
  -1/2 Hartree   DENC   =       -45.63681154
  -exchange  EXHF       =         0.00000000
  -V(xc)+E(xc)   XCENC  =       -76.79670372
  PAW double counting   =       265.93453375     -123.69690146
  entropy T*S    EENTRO =         0.00000000
  eigenvalues    EBANDS =        14.08088231
  atomic energy  EATOM  =       826.37398168
  ---------------------------------------------------
  free energy    TOTEN  =       -34.61759288 eV

  energy without entropy =      -34.61759288  energy(sigma->0) =      -34.61759288


--------------------------------------------------------------------------------------------------------




 average (electrostatic) potential at core
  the test charge radii are     0.9892
  (the norm of the test charge is              1.0000)
       1 -84.3484       2 -84.3498       3 -84.3596       4 -84.3501       5 -84.3473
       6 -84.3487       7 -84.3473       8 -84.3539
 
 
 
 E-fermi :   5.2219     XC(G=0):  -9.5533     alpha+bet :-11.7379


 k-point   1 :       0.0000    0.0000    0.0000
  band No.  band energies     occupation 
      1      -6.6372      2.00000
      2      -2.6516      2.00000
      3      -2.6424      2.00000
      4      -2.6362      2.00000
      5      -2.6228      2.00000
      6      -2.6178      2.00000
      7      -2.6173      2.00000
      8       2.3692      2.00000
      9       2.3743      2.00000
     10       2.3761      2.00000
     11       2.3780      2.00000
     12       2.3823      2.00000
     13       2.3859      2.00000
     14       5.0613      2.00000
     15       5.0674      2.00000
     16       5.0713      2.00000
     17       6.1442      0.00000
     18       6.1459      0.00000
     19       6.1492      0.00000
     20       6.1518      0.00000
     21       6.1593      0.00000
     22       6.1688      0.00000
     23       7.8471      0.00000
     24       7.8491      0.00000
     25       7.8525      0.00000
     26       8.1178      0.00000
     27      13.1844      0.00000
     28      13.1865      0.00000
     29      13.2692      0.00000
     30      15.0831      0.00000
     31      15.0890      0.00000
     32      15.0982      0.00000
     33      15.1122      0.00000
     34      15.1259      0.00000
     35      15.1746      0.00000
     36      16.3139      0.00000
     37      16.3312      0.00000
     38      16.3403      0.00000
     39      16.3627      0.00000
     40      16.4341      0.00000
     41      16.4859      0.00000
     42      16.7125      0.00000
     43      16.7163      0.00000
     44      16.8131      0.00000
     45      17.8801      0.00000
     46      17.8956      0.00000
     47      17.9145      0.00000
     48      17.9370      0.00000


--------------------------------------------------------------------------------------------------------


 soft charge-density along one line, spin component           1
         0         1         2         3         4         5         6         7         8         9
 total charge-density along one line
 
 pseudopotential strength for first ion, spin component:           1
 18.662   0.000   0.000   0.000   0.000   0.000   0.000   0.000
  0.000   0.006   0.000   0.000   0.000   0.000   0.000   0.000
  0.000   0.000   4.216   0.000   0.000  -0.004   0.000   0.000
  0.000   0.000   0.000   4.216   0.000   0.000  -0.004   0.000
  0.000   0.000   0.000   0.000   4.216   0.000   0.000  -0.004
  0.000   0.000  -0.004   0.000   0.000   0.005   0.000   0.000
  0.000   0.000   0.000  -0.004   0.000   0.000   0.005   0.000
  0.000   0.000   0.000   0.000  -0.004   0.000   0.000   0.005
 total augmentation occupancy for first ion, spin component:           1
  2.000   0.000   0.000   0.000   0.000   0.000   0.000   0.000
  0.000   0.000   0.000   0.000   0.000   0.000   0.000   0.000
  0.000   0.000   0.667   0.000   0.000   0.000   0.000   0.000
  0.000   0.000   0.000   0.667   0.000   0.000   0.000   0.000
  0.000   0.000   0.000   0.000   0.667   0.000   0.000   0.000
  0.000   0.000   0.000   0.000   0.000   0.000   0.000   0.000
  0.000   0.000   0.000   0.000   0.000   0.000   0.000   0.000
  0.000   0.000   0.000   0.000   0.000   0.000   0.000   0.000


----------------------------------------- Iteration    1(   4)  ---------------------------------------


     EDDAV:  cpu time    2.02: real time    2.02
       DOS:  cpu time    0.00: real time    0.00
    --------------------------------------------
      LOOP:  cpu time    2.03: real time    2.03

 eigenvalue-minimisations  :   192
 total energy-change (2. order) :-0.3549596E-03  (-0.3549596E-03)
 number of electron      32.0000000 magnetization 
 augmentation part       32.0000000 magnetization 

 Free energy of the ion-electron system (eV)
  ---------------------------------------------------
  alpha Z        PSCENC =        12.68944982
  Ewald energy   TEWEN  =      -907.56602371
  -1/2 Hartree   DENC   =       -45.63681154
  -exchange  EXHF       =         0.00000000
  -V(xc)+E(xc)   XCENC  =       -76.79670372
  PAW double counting   =       265.93453375     -123.69690146
  entropy T*S    EENTRO =         0.00000000
  eigenvalues    EBANDS =        14.08052735
  atomic energy  EATOM  =       826.37398168
  ---------------------------------------------------
  free energy    TOTEN  =       -34.61794784 eV

  energy without entropy =      -34.61794784  energy(sigma->0) =      -34.61794784


--------------------------------------------------------------------------------------------------------




 average (electrostatic) potential at core
  the test charge radii are     0.9892
  (the norm of the test charge is              1.0000)
       1 -84.3484       2 -84.3498       3 -84.3596       4 -84.3501       5 -84.3473
       6 -84.3487       7 -84.3473       8 -84.3539
 
 
 
 E-fermi :   5.1998     XC(G=0):  -9.5533     alpha+bet :-11.7379


 k-point   1 :       0.0000    0.0000    0.0000
  band No.  band energies     occupation 
      1      -6.6372      2.00000
      2      -2.6517      2.00000
      3      -2.6424      2.00000
      4      -2.6362      2.00000
      5      -2.6228      2.00000
      6      -2.6178      2.00000
      7      -2.6174      2.00000
      8       2.3692      2.00000
      9       2.3743      2.00000
     10       2.3761      2.00000
     11       2.3780      2.00000
     12       2.3823      2.00000
     13       2.3859      2.00000
     14       5.0613      2.00000
     15       5.0674      2.00000
     16       5.0713      2.00000
     17       6.1442      0.00000
     18       6.1459      0.00000
     19       6.1492      0.00000
     20       6.1517      0.00000
     21       6.1593      0.00000
     22       6.1688      0.00000
     23       7.8470      0.00000
     24       7.8491      0.00000
     25       7.8525      0.00000
     26       8.1178      0.00000
     27      13.1837      0.00000
     28      13.1837      0.00000
     29      13.2692      0.00000
     30      15.0736      0.00000
     31      15.0767      0.00000
     32      15.0836      0.00000
     33      15.0857      0.00000
     34      15.0900      0.00000
     35      15.0988      0.00000
     36      16.2931      0.00000
     37      16.2999      0.00000
     38      16.3038      0.00000
     39      16.3133      0.00000
     40      16.3224      0.00000
     41      16.3300      0.00000
     42      16.7016      0.00000
     43      16.7040      0.00000
     44      16.7076      0.00000
     45      17.8727      0.00000
     46      17.8779      0.00000
     47      17.8838      0.00000
     48      17.8912      0.00000


--------------------------------------------------------------------------------------------------------


 soft charge-density along one line, spin component           1
         0         1         2         3         4         5         6         7         8         9
 total charge-density along one line
 
 pseudopotential strength for first ion, spin component:           1
 18.662   0.000   0.000   0.000   0.000   0.000   0.000   0.000
  0.000   0.006   0.000   0.000   0.000   0.000   0.000   0.000
  0.000   0.000   4.216   0.000   0.000  -0.004   0.000   0.000
  0.000   0.000   0.000   4.216   0.000   0.000  -0.004   0.000
  0.000   0.000   0.000   0.000   4.216   0.000   0.000  -0.004
  0.000   0.000  -0.004   0.000   0.000   0.005   0.000   0.000
  0.000   0.000   0.000  -0.004   0.000   0.000   0.005   0.000
  0.000   0.000   0.000   0.000  -0.004   0.000   0.000   0.005
 total augmentation occupancy for first ion, spin component:           1
  2.000   0.000   0.000   0.000   0.000   0.000   0.000   0.000
  0.000   0.000   0.000   0.000   0.000   0.000   0.000   0.000
  0.000   0.000   0.667   0.000   0.000   0.000   0.000   0.000
  0.000   0.000   0.000   0.667   0.000   0.000   0.000   0.000
  0.000   0.000   0.000   0.000   0.667   0.000   0.000   0.000
  0.000   0.000   0.000   0.000   0.000   0.000   0.000   0.000
  0.000   0.000   0.000   0.000   0.000   0.000   0.000   0.000
  0.000   0.000   0.000   0.000   0.000   0.000   0.000   0.000


----------------------------------------- Iteration    1(   5)  ---------------------------------------


     EDDAV:  cpu time    0.39: real time    0.39
       DOS:  cpu time    0.00: real time    0.00
    CHARGE:  cpu time    0.02: real time    0.02
    MIXING:  cpu time    0.00: real time    0.00
    --------------------------------------------
      LOOP:  cpu time    0.43: real time    0.43

 eigenvalue-minimisations  :    96
 total energy-change (2. order) :-0.3056812E-08  (-0.3055402E-08)
 number of electron      31.9999999 magnetization 
 augmentation part       -1.8053371 magnetization 

 Broyden mixing:
  rms(total) = 0.79306E+00    rms(broyden)= 0.79301E+00
  rms(prec ) = 0.15229E+01
  weight for this iteration     100.00

 Free energy of the ion-electron system (eV)
  ---------------------------------------------------
  alpha Z        PSCENC =        12.68944982
  Ewald energy   TEWEN  =      -907.56602371
  -1/2 Hartree   DENC   =       -45.63681154
  -exchange  EXHF       =         0.00000000
  -V(xc)+E(xc)   XCENC  =       -76.79670372
  PAW double counting   =       265.93453375     -123.69690146
  entropy T*S    EENTRO =         0.00000000
  eigenvalues    EBANDS =        14.08052735
  atomic energy  EATOM  =       826.37398168
  ---------------------------------------------------
  free energy    TOTEN  =       -34.61794784 eV

  energy without entropy =      -34.61794784  energy(sigma->0) =      -34.61794784


--------------------------------------------------------------------------------------------------------




 average (electrostatic) potential at core
  the test charge radii are     0.9892
  (the norm of the test charge is              1.0000)
       1 -84.3484       2 -84.3498       3 -84.3596       4 -84.3501       5 -84.3473
       6 -84.3487       7 -84.3473       8 -84.3539
 
 
 
 E-fermi :   5.1975     XC(G=0):  -9.5533     alpha+bet :-11.7379


 k-point   1 :       0.0000    0.0000    0.0000
  band No.  band energies     occupation 
      1      -6.6372      2.00000
      2      -2.6517      2.00000
      3      -2.6424      2.00000
      4      -2.6362      2.00000
      5      -2.6228      2.00000
      6      -2.6178      2.00000
      7      -2.6174      2.00000
      8       2.3692      2.00000
      9       2.3743      2.00000
     10       2.3761      2.00000
     11       2.3780      2.00000
     12       2.3823      2.00000
     13       2.3859      2.00000
     14       5.0613      2.00000
     15       5.0674      2.00000
     16       5.0713      2.00000
     17       6.1442      0.00000
     18       6.1459      0.00000
     19       6.1492      0.00000
     20       6.1517      0.00000
     21       6.1593      0.00000
     22       6.1688      0.00000
     23       7.8470      0.00000
     24       7.8491      0.00000
     25       7.8525      0.00000
     26       8.1178      0.00000
     27      13.1837      0.00000
     28      13.1837      0.00000
     29      13.2692      0.00000
     30      15.0735      0.00000
     31      15.0767      0.00000
     32      15.0836      0.00000
     33      15.0857      0.00000
     34      15.0900      0.00000
     35      15.0988      0.00000
     36      16.2928      0.00000
     37      16.2996      0.00000
     38      16.3036      0.00000
     39      16.3128      0.00000
     40      16.3223      0.00000
     41      16.3295      0.00000
     42      16.7015      0.00000
     43      16.7038      0.00000
     44      16.7076      0.00000
     45      17.8700      0.00000
     46      17.8716      0.00000
     47      17.8741      0.00000
     48      17.8865      0.00000


--------------------------------------------------------------------------------------------------------


 soft charge-density along one line, spin component           1
         0         1         2         3         4         5         6         7         8         9
 total charge-density along one line
 
 pseudopotential strength for first ion, spin component:           1
 18.662   0.000   0.000   0.000   0.000   0.000   0.000   0.000
  0.000   0.006   0.000   0.000   0.000   0.000   0.000   0.000
  0.000   0.000   4.216   0.000   0.000  -0.004   0.000   0.000
  0.000   0.000   0.000   4.216   0.000   0.000  -0.004   0.000
  0.000   0.000   0.000   0.000   4.216   0.000   0.000  -0.004
  0.000   0.000  -0.004   0.000   0.000   0.005   0.000   0.000
  0.000   0.000   0.000  -0.004   0.000   0.000   0.005   0.000
  0.000   0.000   0.000   0.000  -0.004   0.000   0.000   0.005
 total augmentation occupancy for first ion, spin component:           1
  1.380  -1.051   0.001   0.000   0.001  -0.001  -0.001   0.000
 -1.051   0.917  -0.001   0.000   0.000   0.002   0.000   0.000
  0.001  -0.001   1.166   0.000   0.000  -0.759   0.000  -0.001
  0.000   0.000   0.000   1.161   0.001  -0.001  -0.755  -0.001
  0.001   0.000   0.000   0.001   1.166   0.000  -0.001  -0.759
 -0.001   0.002  -0.759  -0.001   0.000   0.570   0.001   0.001
 -0.001   0.000   0.000  -0.755  -0.001   0.001   0.567   0.001
  0.000   0.000  -0.001  -0.001  -0.759   0.001   0.001   0.570


----------------------------------------- Iteration    1(   6)  ---------------------------------------


    POTLOK:  cpu time    0.02: real time    0.02
    SETDIJ:  cpu time    0.02: real time    0.02
    EDDIAG:  cpu time    0.03: real time    0.03
  RMM-DIIS:  cpu time    0.02: real time    0.02
    ORTHCH:  cpu time    0.01: real time    0.01
       DOS:  cpu time    0.00: real time    0.00
    CHARGE:  cpu time    0.02: real time    0.02
    MIXING:  cpu time    0.00: real time    0.00
    --------------------------------------------
      LOOP:  cpu time    0.13: real time    0.14

 eigenvalue-minimisations  :    96
 total energy-change (2. order) : 0.1001725E+01  (-0.3198193E-01)
 number of electron      31.9999999 magnetization 
 augmentation part       -1.7684086 magnetization 

 Broyden mixing:
  rms(total) = 0.47399E+00    rms(broyden)= 0.47399E+00
  rms(prec ) = 0.91066E+00
  weight for this iteration     100.00

 eigenvalues of (default mixing * dielectric matrix)
  average eigenvalue GAMMA=   2.4573
  2.4573

 Free energy of the ion-electron system (eV)
  ---------------------------------------------------
  alpha Z        PSCENC =        12.68944982
  Ewald energy   TEWEN  =      -907.56602371
  -1/2 Hartree   DENC   =       -54.68337322
  -exchange  EXHF       =         0.00000000
  -V(xc)+E(xc)   XCENC  =       -75.44940124
  PAW double counting   =       286.06074588     -144.35905587
  entropy T*S    EENTRO =         0.00000000
  eigenvalues    EBANDS =        23.31745401
  atomic energy  EATOM  =       826.37398168
  ---------------------------------------------------
  free energy    TOTEN  =       -33.61622265 eV

  energy without entropy =      -33.61622265  energy(sigma->0) =      -33.61622265


--------------------------------------------------------------------------------------------------------




 average (electrostatic) potential at core
  the test charge radii are     0.9892
  (the norm of the test charge is              1.0000)
       1 -83.8318       2 -83.8324       3 -83.8371       4 -83.8326       5 -83.8312
       6 -83.8318       7 -83.8312       8 -83.8344
 
 
 
 E-fermi :   5.5489     XC(G=0):  -9.4504     alpha+bet :-11.7379


 k-point   1 :       0.0000    0.0000    0.0000
  band No.  band energies     occupation 
      1      -6.3788      2.00000
      2      -2.3497      2.00000
      3      -2.3418      2.00000
      4      -2.3368      2.00000
      5      -2.3252      2.00000
      6      -2.3209      2.00000
      7      -2.3204      2.00000
      8       2.6314      2.00000
      9       2.6357      2.00000
     10       2.6374      2.00000
     11       2.6390      2.00000
     12       2.6426      2.00000
     13       2.6460      2.00000
     14       5.3948      2.00000
     15       5.4008      2.00000
     16       5.4046      2.00000
     17       6.2596      0.00000
     18       6.2611      0.00000
     19       6.2641      0.00000
     20       6.2663      0.00000
     21       6.2730      0.00000
     22       6.2815      0.00000
     23       8.0544      0.00000
     24       8.0564      0.00000
     25       8.0599      0.00000
     26       8.4862      0.00000
     27      13.3049      0.00000
     28      13.3568      0.00000
     29      13.3568      0.00000
     30      15.3704      0.00000
     31      15.3736      0.00000
     32      15.3800      0.00000
     33      15.3820      0.00000
     34      15.3856      0.00000
     35      15.3936      0.00000
     36      16.5301      0.00000
     37      16.5363      0.00000
     38      16.5401      0.00000
     39      16.5484      0.00000
     40      16.5570      0.00000
     41      16.5636      0.00000
     42      16.7461      0.00000
     43      16.7484      0.00000
     44      16.7523      0.00000
     45      18.1562      0.00000
     46      18.1597      0.00000
     47      18.1627      0.00000
     48      18.1742      0.00000


--------------------------------------------------------------------------------------------------------


 soft charge-density along one line, spin component           1
         0         1         2         3         4         5         6         7         8         9
 total charge-density along one line
 
 pseudopotential strength for first ion, spin component:           1
 18.635  -0.001   0.000   0.000   0.000   0.000   0.000   0.000
 -0.001   0.006   0.000   0.000   0.000   0.000   0.000   0.000
  0.000   0.000   4.221   0.000   0.000  -0.004   0.000   0.000
  0.000   0.000   0.000   4.221   0.000   0.000  -0.004   0.000
  0.000   0.000   0.000   0.000   4.221   0.000   0.000  -0.004
  0.000   0.000  -0.004   0.000   0.000   0.005   0.000   0.000
  0.000   0.000   0.000  -0.004   0.000   0.000   0.005   0.000
  0.000   0.000   0.000   0.000  -0.004   0.000   0.000   0.005
 total augmentation occupancy for first ion, spin component:           1
  1.351  -1.089   0.000   0.000   0.001  -0.002  -0.001  -0.001
 -1.089   0.996  -0.001  -0.001   0.000   0.002   0.000   0.000
  0.000  -0.001   1.148   0.000   0.000  -0.782   0.000  -0.001
  0.000  -0.001   0.000   1.144   0.001  -0.001  -0.779  -0.001
  0.001   0.000   0.000   0.001   1.148   0.000  -0.001  -0.782
 -0.002   0.002  -0.782  -0.001   0.000   0.608   0.001   0.001
 -0.001   0.000   0.000  -0.779  -0.001   0.001   0.605   0.001
 -0.001   0.000  -0.001  -0.001  -0.782   0.001   0.001   0.608


----------------------------------------- Iteration    1(   7)  ---------------------------------------


    POTLOK:  cpu time    0.02: real time    0.02
    SETDIJ:  cpu time    0.02: real time    0.02
    EDDIAG:  cpu time    0.02: real time    0.02
  RMM-DIIS:  cpu time    0.05: real time    0.05
    ORTHCH:  cpu time    0.01: real time    0.01
       DOS:  cpu time    0.00: real time    0.00
    CHARGE:  cpu time    0.04: real time    0.04
    MIXING:  cpu time    0.00: real time    0.00
    --------------------------------------------
      LOOP:  cpu time    0.16: real time    0.17

 eigenvalue-minimisations  :    96
 total energy-change (2. order) : 0.4246669E+00  (-0.7388376E-01)
 number of electron      31.9999999 magnetization 
 augmentation part       -1.7214547 magnetization 

 Broyden mixing:
  rms(total) = 0.46253E-01    rms(broyden)= 0.46243E-01
  rms(prec ) = 0.78467E-01
  weight for this iteration     100.00

 eigenvalues of (default mixing * dielectric matrix)
  average eigenvalue GAMMA=   2.5297
  2.5297  2.5297

 Free energy of the ion-electron system (eV)
  ---------------------------------------------------
  alpha Z        PSCENC =        12.68944982
  Ewald energy   TEWEN  =      -907.56602371
  -1/2 Hartree   DENC   =       -70.51418227
  -exchange  EXHF       =         0.00000000
  -V(xc)+E(xc)   XCENC  =       -73.00929289
  PAW double counting   =       313.72464372     -172.73665529
  entropy T*S    EENTRO =         0.00000000
  eigenvalues    EBANDS =        37.84652314
  atomic energy  EATOM  =       826.37398168
  ---------------------------------------------------
  free energy    TOTEN  =       -33.19155580 eV

  energy without entropy =      -33.19155580  energy(sigma->0) =      -33.19155580


--------------------------------------------------------------------------------------------------------




 average (electrostatic) potential at core
  the test charge radii are     0.9892
  (the norm of the test charge is              1.0000)
       1 -83.1448       2 -83.1450       3 -83.1481       4 -83.1455       5 -83.1446
       6 -83.1449       7 -83.1447       8 -83.1467
 
 
 
 E-fermi :   6.0961     XC(G=0):  -9.2018     alpha+bet :-11.7379


 k-point   1 :       0.0000    0.0000    0.0000
  band No.  band energies     occupation 
      1      -5.9621      2.00000
      2      -1.8805      2.00000
      3      -1.8739      2.00000
      4      -1.8699      2.00000
      5      -1.8600      2.00000
      6      -1.8563      2.00000
      7      -1.8555      2.00000
      8       3.0452      2.00000
      9       3.0482      2.00000
     10       3.0501      2.00000
     11       3.0516      2.00000
     12       3.0546      2.00000
     13       3.0579      2.00000
     14       5.9195      2.00000
     15       5.9253      2.00000
     16       5.9290      2.00000
     17       6.5191      0.00000
     18       6.5204      0.00000
     19       6.5231      0.00000
     20       6.5248      0.00000
     21       6.5306      0.00000
     22       6.5379      0.00000
     23       8.3794      0.00000
     24       8.3816      0.00000
     25       8.3851      0.00000
     26       9.0452      0.00000
     27      13.6012      0.00000
     28      13.6204      0.00000
     29      13.6204      0.00000
     30      15.8213      0.00000
     31      15.8243      0.00000
     32      15.8300      0.00000
     33      15.8319      0.00000
     34      15.8350      0.00000
     35      15.8424      0.00000
     36      16.9002      0.00000
     37      16.9022      0.00000
     38      16.9059      0.00000
     39      16.9521      0.00000
     40      16.9574      0.00000
     41      16.9602      0.00000
     42      16.9676      0.00000
     43      16.9751      0.00000
     44      16.9811      0.00000
     45      18.6470      0.00000
     46      18.6581      0.00000
     47      18.6623      0.00000
     48      18.6737      0.00000


--------------------------------------------------------------------------------------------------------


 soft charge-density along one line, spin component           1
         0         1         2         3         4         5         6         7         8         9
 total charge-density along one line
 
 pseudopotential strength for first ion, spin component:           1
 18.596  -0.001   0.000   0.000   0.000   0.000   0.000   0.000
 -0.001   0.006   0.000   0.000   0.000   0.000   0.000   0.000
  0.000   0.000   4.227   0.000   0.000  -0.005   0.000   0.000
  0.000   0.000   0.000   4.227   0.000   0.000  -0.005   0.000
  0.000   0.000   0.000   0.000   4.227   0.000   0.000  -0.005
  0.000   0.000  -0.005   0.000   0.000   0.005   0.000   0.000
  0.000   0.000   0.000  -0.005   0.000   0.000   0.005   0.000
  0.000   0.000   0.000   0.000  -0.005   0.000   0.000   0.005
 total augmentation occupancy for first ion, spin component:           1
  1.315  -1.111   0.000  -0.001   0.001  -0.002   0.000  -0.001
 -1.111   1.057  -0.001  -0.001   0.000   0.002   0.001   0.000
  0.000  -0.001   1.123   0.000   0.000  -0.805   0.000   0.000
 -0.001  -0.001   0.000   1.119   0.001  -0.001  -0.802  -0.001
  0.001   0.000   0.000   0.001   1.123   0.000  -0.001  -0.805
 -0.002   0.002  -0.805  -0.001   0.000   0.652   0.001   0.001
  0.000   0.001   0.000  -0.802  -0.001   0.001   0.649   0.001
 -0.001   0.000   0.000  -0.001  -0.805   0.001   0.001   0.652


----------------------------------------- Iteration    1(   8)  ---------------------------------------


    POTLOK:  cpu time    0.03: real time    0.03
    SETDIJ:  cpu time    0.02: real time    0.02
    EDDIAG:  cpu time    0.02: real time    0.02
  RMM-DIIS:  cpu time    0.03: real time    0.03
    ORTHCH:  cpu time    0.01: real time    0.01
       DOS:  cpu time    0.00: real time    0.00
    CHARGE:  cpu time    0.03: real time    0.03
    MIXING:  cpu time    0.00: real time    0.00
    --------------------------------------------
      LOOP:  cpu time    0.15: real time    0.15

 eigenvalue-minimisations  :    96
 total energy-change (2. order) :-0.3196973E-01  (-0.2158883E-02)
 number of electron      31.9999999 magnetization 
 augmentation part       -1.7275443 magnetization 

 Broyden mixing:
  rms(total) = 0.75095E-02    rms(broyden)= 0.75090E-02
  rms(prec ) = 0.17994E-01
  weight for this iteration     100.00

 eigenvalues of (default mixing * dielectric matrix)
  average eigenvalue GAMMA=   2.1209
  1.2738  2.8645  2.2245

 Free energy of the ion-electron system (eV)
  ---------------------------------------------------
  alpha Z        PSCENC =        12.68944982
  Ewald energy   TEWEN  =      -907.56602371
  -1/2 Hartree   DENC   =       -70.39936192
  -exchange  EXHF       =         0.00000000
  -V(xc)+E(xc)   XCENC  =       -72.96574393
  PAW double counting   =       307.36847430     -166.19585274
  entropy T*S    EENTRO =         0.00000000
  eigenvalues    EBANDS =        37.47155097
  atomic energy  EATOM  =       826.37398168
  ---------------------------------------------------
  free energy    TOTEN  =       -33.22352553 eV

  energy without entropy =      -33.22352553  energy(sigma->0) =      -33.22352553


--------------------------------------------------------------------------------------------------------




 average (electrostatic) potential at core
  the test charge radii are     0.9892
  (the norm of the test charge is              1.0000)
       1 -83.2467       2 -83.2477       3 -83.2550       4 -83.2481       5 -83.2459
       6 -83.2469       7 -83.2460       8 -83.2510
 
 
 
 E-fermi :   6.0349     XC(G=0):  -9.1505     alpha+bet :-11.7379


 k-point   1 :       0.0000    0.0000    0.0000
  band No.  band energies     occupation 
      1      -5.9632      2.00000
      2      -1.8938      2.00000
      3      -1.8863      2.00000
      4      -1.8817      2.00000
      5      -1.8708      2.00000
      6      -1.8667      2.00000
      7      -1.8661      2.00000
      8       3.0332      2.00000
      9       3.0364      2.00000
     10       3.0385      2.00000
     11       3.0401      2.00000
     12       3.0435      2.00000
     13       3.0470      2.00000
     14       5.9034      2.00000
     15       5.9093      2.00000
     16       5.9130      2.00000
     17       6.5695      0.00000
     18       6.5709      0.00000
     19       6.5737      0.00000
     20       6.5757      0.00000
     21       6.5818      0.00000
     22       6.5893      0.00000
     23       8.3688      0.00000
     24       8.3709      0.00000
     25       8.3745      0.00000
     26       9.0381      0.00000
     27      13.6064      0.00000
     28      13.6064      0.00000
     29      13.7782      0.00000
     30      15.8066      0.00000
     31      15.8094      0.00000
     32      15.8150      0.00000
     33      15.8171      0.00000
     34      15.8206      0.00000
     35      15.8285      0.00000
     36      16.9368      0.00000
     37      16.9378      0.00000
     38      16.9412      0.00000
     39      16.9595      0.00000
     40      16.9645      0.00000
     41      16.9666      0.00000
     42      16.9743      0.00000
     43      16.9821      0.00000
     44      16.9885      0.00000
     45      18.6817      0.00000
     46      18.6952      0.00000
     47      18.6999      0.00000
     48      18.7116      0.00000


--------------------------------------------------------------------------------------------------------


 soft charge-density along one line, spin component           1
         0         1         2         3         4         5         6         7         8         9
 total charge-density along one line
 
 pseudopotential strength for first ion, spin component:           1
 18.599  -0.001   0.000   0.000   0.000   0.000   0.000   0.000
 -0.001   0.006   0.000   0.000   0.000   0.000   0.000   0.000
  0.000   0.000   4.224   0.000   0.000  -0.005   0.000   0.000
  0.000   0.000   0.000   4.224   0.000   0.000  -0.005   0.000
  0.000   0.000   0.000   0.000   4.224   0.000   0.000  -0.005
  0.000   0.000  -0.005   0.000   0.000   0.005   0.000   0.000
  0.000   0.000   0.000  -0.005   0.000   0.000   0.005   0.000
  0.000   0.000   0.000   0.000  -0.005   0.000   0.000   0.005
 total augmentation occupancy for first ion, spin component:           1
  1.320  -1.091   0.001   0.000   0.000  -0.001   0.000  -0.001
 -1.091   1.019  -0.001  -0.001   0.000   0.002   0.000   0.000
  0.001  -0.001   1.124   0.000   0.000  -0.801   0.000   0.000
  0.000  -0.001   0.000   1.120   0.001  -0.001  -0.798  -0.001
  0.000   0.000   0.000   0.001   1.124   0.000  -0.001  -0.801
 -0.001   0.002  -0.801  -0.001   0.000   0.647   0.001   0.001
  0.000   0.000   0.000  -0.798  -0.001   0.001   0.644   0.001
 -0.001   0.000   0.000  -0.001  -0.801   0.001   0.001   0.647


----------------------------------------- Iteration    1(   9)  ---------------------------------------


    POTLOK:  cpu time    0.02: real time    0.02
    SETDIJ:  cpu time    0.02: real time    0.02
    EDDIAG:  cpu time    0.04: real time    0.04
  RMM-DIIS:  cpu time    0.04: real time    0.04
    ORTHCH:  cpu time    0.01: real time    0.01
       DOS:  cpu time    0.00: real time    0.00
    CHARGE:  cpu time    0.02: real time    0.02
    MIXING:  cpu time    0.00: real time    0.00
    --------------------------------------------
      LOOP:  cpu time    0.16: real time    0.16

 eigenvalue-minimisations  :   105
 total energy-change (2. order) :-0.1141909E-02  (-0.1269440E-03)
 number of electron      31.9999999 magnetization 
 augmentation part       -1.7274640 magnetization 

 Broyden mixing:
  rms(total) = 0.41814E-02    rms(broyden)= 0.41813E-02
  rms(prec ) = 0.68509E-02
  weight for this iteration     100.00

 eigenvalues of (default mixing * dielectric matrix)
  average eigenvalue GAMMA=   2.2741
  0.9839  3.1707  2.6494  2.2926

 Free energy of the ion-electron system (eV)
  ---------------------------------------------------
  alpha Z        PSCENC =        12.68944982
  Ewald energy   TEWEN  =      -907.56602371
  -1/2 Hartree   DENC   =       -70.79630123
  -exchange  EXHF       =         0.00000000
  -V(xc)+E(xc)   XCENC  =       -72.90644763
  PAW double counting   =       307.71757960     -166.55531045
  entropy T*S    EENTRO =         0.00000000
  eigenvalues    EBANDS =        37.81840448
  atomic energy  EATOM  =       826.37398168
  ---------------------------------------------------
  free energy    TOTEN  =       -33.22466744 eV

  energy without entropy =      -33.22466744  energy(sigma->0) =      -33.22466744


--------------------------------------------------------------------------------------------------------




 average (electrostatic) potential at core
  the test charge radii are     0.9892
  (the norm of the test charge is              1.0000)
       1 -83.2330       2 -83.2338       3 -83.2391       4 -83.2339       5 -83.2323
       6 -83.2330       7 -83.2323       8 -83.2360
 
 
 
 E-fermi :   6.0497     XC(G=0):  -9.1363     alpha+bet :-11.7379


 k-point   1 :       0.0000    0.0000    0.0000
  band No.  band energies     occupation 
      1      -5.9520      2.00000
      2      -1.8820      2.00000
      3      -1.8748      2.00000
      4      -1.8704      2.00000
      5      -1.8600      2.00000
      6      -1.8559      2.00000
      7      -1.8553      2.00000
      8       3.0432      2.00000
      9       3.0464      2.00000
     10       3.0484      2.00000
     11       3.0499      2.00000
     12       3.0532      2.00000
     13       3.0566      2.00000
     14       5.9155      2.00000
     15       5.9213      2.00000
     16       5.9251      2.00000
     17       6.5836      0.00000
     18       6.5850      0.00000
     19       6.5877      0.00000
     20       6.5898      0.00000
     21       6.5959      0.00000
     22       6.6035      0.00000
     23       8.3764      0.00000
     24       8.3786      0.00000
     25       8.3821      0.00000
     26       9.0526      0.00000
     27      13.6116      0.00000
     28      13.6116      0.00000
     29      13.8105      0.00000
     30      15.8171      0.00000
     31      15.8200      0.00000
     32      15.8257      0.00000
     33      15.8277      0.00000
     34      15.8311      0.00000
     35      15.8387      0.00000
     36      16.9469      0.00000
     37      16.9480      0.00000
     38      16.9514      0.00000
     39      16.9716      0.00000
     40      16.9766      0.00000
     41      16.9788      0.00000
     42      16.9863      0.00000
     43      16.9941      0.00000
     44      17.0003      0.00000
     45      18.6997      0.00000
     46      18.7130      0.00000
     47      18.7179      0.00000
     48      18.7301      0.00000


--------------------------------------------------------------------------------------------------------


 soft charge-density along one line, spin component           1
         0         1         2         3         4         5         6         7         8         9
 total charge-density along one line
 
 pseudopotential strength for first ion, spin component:           1
 18.598  -0.001   0.000   0.000   0.000   0.000   0.000   0.000
 -0.001   0.006   0.000   0.000   0.000   0.000   0.000   0.000
  0.000   0.000   4.224   0.000   0.000  -0.005   0.000   0.000
  0.000   0.000   0.000   4.224   0.000   0.000  -0.005   0.000
  0.000   0.000   0.000   0.000   4.224   0.000   0.000  -0.005
  0.000   0.000  -0.005   0.000   0.000   0.005   0.000   0.000
  0.000   0.000   0.000  -0.005   0.000   0.000   0.005   0.000
  0.000   0.000   0.000   0.000  -0.005   0.000   0.000   0.005
 total augmentation occupancy for first ion, spin component:           1
  1.320  -1.086   0.001   0.000   0.000  -0.001   0.000  -0.001
 -1.086   1.011  -0.001  -0.001   0.000   0.002   0.000   0.000
  0.001  -0.001   1.124   0.000   0.000  -0.801   0.000   0.000
  0.000  -0.001   0.000   1.120   0.001  -0.001  -0.798  -0.001
  0.000   0.000   0.000   0.001   1.124   0.000  -0.001  -0.801
 -0.001   0.002  -0.801  -0.001   0.000   0.647   0.001   0.001
  0.000   0.000   0.000  -0.798  -0.001   0.001   0.644   0.001
 -0.001   0.000   0.000  -0.001  -0.801   0.001   0.001   0.647


----------------------------------------- Iteration    1(  10)  ---------------------------------------


    POTLOK:  cpu time    0.02: real time    0.02
    SETDIJ:  cpu time    0.02: real time    0.02
    EDDIAG:  cpu time    0.02: real time    0.02
  RMM-DIIS:  cpu time    0.02: real time    0.02
    ORTHCH:  cpu time    0.01: real time    0.01
       DOS:  cpu time    0.00: real time    0.00
    CHARGE:  cpu time    0.03: real time    0.03
    MIXING:  cpu time    0.00: real time    0.00
    --------------------------------------------
      LOOP:  cpu time    0.13: real time    0.13

 eigenvalue-minimisations  :   104
 total energy-change (2. order) :-0.1851537E-03  (-0.2218339E-04)
 number of electron      31.9999999 magnetization 
 augmentation part       -1.7273630 magnetization 

 Broyden mixing:
  rms(total) = 0.39821E-03    rms(broyden)= 0.39773E-03
  rms(prec ) = 0.82878E-03
  weight for this iteration     100.00

 eigenvalues of (default mixing * dielectric matrix)
  average eigenvalue GAMMA=   2.0395
  3.0836  2.6194  2.1554  0.9794  1.3598

 Free energy of the ion-electron system (eV)
  ---------------------------------------------------
  alpha Z        PSCENC =        12.68944982
  Ewald energy   TEWEN  =      -907.56602371
  -1/2 Hartree   DENC   =       -70.84451992
  -exchange  EXHF       =         0.00000000
  -V(xc)+E(xc)   XCENC  =       -72.90946292
  PAW double counting   =       307.79523940     -166.63865943
  entropy T*S    EENTRO =         0.00000000
  eigenvalues    EBANDS =        37.87514249
  atomic energy  EATOM  =       826.37398168
  ---------------------------------------------------
  free energy    TOTEN  =       -33.22485260 eV

  energy without entropy =      -33.22485260  energy(sigma->0) =      -33.22485260


--------------------------------------------------------------------------------------------------------




 average (electrostatic) potential at core
  the test charge radii are     0.9892
  (the norm of the test charge is              1.0000)
       1 -83.2253       2 -83.2258       3 -83.2299       4 -83.2259       5 -83.2248
       6 -83.2253       7 -83.2247       8 -83.2276
 
 
 
 E-fermi :   6.0540     XC(G=0):  -9.1310     alpha+bet :-11.7379


 k-point   1 :       0.0000    0.0000    0.0000
  band No.  band energies     occupation 
      1      -5.9497      2.00000
      2      -1.8798      2.00000
      3      -1.8727      2.00000
      4      -1.8685      2.00000
      5      -1.8582      2.00000
      6      -1.8543      2.00000
      7      -1.8536      2.00000
      8       3.0449      2.00000
      9       3.0480      2.00000
     10       3.0499      2.00000
     11       3.0514      2.00000
     12       3.0547      2.00000
     13       3.0580      2.00000
     14       5.9174      2.00000
     15       5.9233      2.00000
     16       5.9270      2.00000
     17       6.5886      0.00000
     18       6.5900      0.00000
     19       6.5928      0.00000
     20       6.5948      0.00000
     21       6.6009      0.00000
     22       6.6085      0.00000
     23       8.3773      0.00000
     24       8.3794      0.00000
     25       8.3829      0.00000
     26       9.0560      0.00000
     27      13.6116      0.00000
     28      13.6116      0.00000
     29      13.8256      0.00000
     30      15.8187      0.00000
     31      15.8217      0.00000
     32      15.8275      0.00000
     33      15.8294      0.00000
     34      15.8328      0.00000
     35      15.8403      0.00000
     36      16.9507      0.00000
     37      16.9517      0.00000
     38      16.9550      0.00000
     39      16.9744      0.00000
     40      16.9792      0.00000
     41      16.9814      0.00000
     42      16.9888      0.00000
     43      16.9965      0.00000
     44      17.0026      0.00000
     45      18.7069      0.00000
     46      18.7200      0.00000
     47      18.7246      0.00000
     48      18.7365      0.00000


--------------------------------------------------------------------------------------------------------


 soft charge-density along one line, spin component           1
         0         1         2         3         4         5         6         7         8         9
 total charge-density along one line
 
 pseudopotential strength for first ion, spin component:           1
 18.597  -0.001   0.000   0.000   0.000   0.000   0.000   0.000
 -0.001   0.006   0.000   0.000   0.000   0.000   0.000   0.000
  0.000   0.000   4.224   0.000   0.000  -0.005   0.000   0.000
  0.000   0.000   0.000   4.224   0.000   0.000  -0.005   0.000
  0.000   0.000   0.000   0.000   4.224   0.000   0.000  -0.005
  0.000   0.000  -0.005   0.000   0.000   0.005   0.000   0.000
  0.000   0.000   0.000  -0.005   0.000   0.000   0.005   0.000
  0.000   0.000   0.000   0.000  -0.005   0.000   0.000   0.005
 total augmentation occupancy for first ion, spin component:           1
  1.320  -1.086   0.001   0.000   0.001  -0.001   0.000  -0.001
 -1.086   1.011  -0.001  -0.001   0.000   0.002   0.000   0.000
  0.001  -0.001   1.124   0.000   0.000  -0.801   0.000   0.000
  0.000  -0.001   0.000   1.120   0.001  -0.001  -0.798  -0.001
  0.001   0.000   0.000   0.001   1.124   0.000  -0.001  -0.802
 -0.001   0.002  -0.801  -0.001   0.000   0.648   0.001   0.001
  0.000   0.000   0.000  -0.798  -0.001   0.001   0.645   0.001
 -0.001   0.000   0.000  -0.001  -0.802   0.001   0.001   0.648


----------------------------------------- Iteration    1(  11)  ---------------------------------------


    POTLOK:  cpu time    0.02: real time    0.02
    SETDIJ:  cpu time    0.02: real time    0.02
    EDDIAG:  cpu time    0.03: real time    0.03
  RMM-DIIS:  cpu time    0.03: real time    0.03
    ORTHCH:  cpu time    0.00: real time    0.01
       DOS:  cpu time    0.00: real time    0.00
    CHARGE:  cpu time    0.03: real time    0.03
    MIXING:  cpu time    0.00: real time    0.00
    --------------------------------------------
      LOOP:  cpu time    0.14: real time    0.15

 eigenvalue-minimisations  :   116
 total energy-change (2. order) : 0.4144216E-05  (-0.2499684E-06)
 number of electron      31.9999999 magnetization 
 augmentation part       -1.7274474 magnetization 

 Broyden mixing:
  rms(total) = 0.16896E-03    rms(broyden)= 0.16890E-03
  rms(prec ) = 0.33593E-03
  weight for this iteration     100.00

 eigenvalues of (default mixing * dielectric matrix)
  average eigenvalue GAMMA=   1.9551
  3.2045  2.6992  2.1783  1.6828  0.9829  0.9829

 Free energy of the ion-electron system (eV)
  ---------------------------------------------------
  alpha Z        PSCENC =        12.68944982
  Ewald energy   TEWEN  =      -907.56602371
  -1/2 Hartree   DENC   =       -70.82782595
  -exchange  EXHF       =         0.00000000
  -V(xc)+E(xc)   XCENC  =       -72.91094082
  PAW double counting   =       307.73210457     -166.57318509
  entropy T*S    EENTRO =         0.00000000
  eigenvalues    EBANDS =        37.85759105
  atomic energy  EATOM  =       826.37398168
  ---------------------------------------------------
  free energy    TOTEN  =       -33.22484845 eV

  energy without entropy =      -33.22484845  energy(sigma->0) =      -33.22484845


--------------------------------------------------------------------------------------------------------




 average (electrostatic) potential at core
  the test charge radii are     0.9892
  (the norm of the test charge is              1.0000)
       1 -83.2268       2 -83.2275       3 -83.2324       4 -83.2276       5 -83.2262
       6 -83.2268       7 -83.2261       8 -83.2296
 
 
 
 E-fermi :   6.0536     XC(G=0):  -9.1314     alpha+bet :-11.7379


 k-point   1 :       0.0000    0.0000    0.0000
  band No.  band energies     occupation 
      1      -5.9502      2.00000
      2      -1.8806      2.00000
      3      -1.8734      2.00000
      4      -1.8691      2.00000
      5      -1.8587      2.00000
      6      -1.8547      2.00000
      7      -1.8540      2.00000
      8       3.0443      2.00000
      9       3.0474      2.00000
     10       3.0494      2.00000
     11       3.0509      2.00000
     12       3.0542      2.00000
     13       3.0576      2.00000
     14       5.9168      2.00000
     15       5.9226      2.00000
     16       5.9264      2.00000
     17       6.5881      0.00000
     18       6.5895      0.00000
     19       6.5923      0.00000
     20       6.5944      0.00000
     21       6.6005      0.00000
     22       6.6081      0.00000
     23       8.3769      0.00000
     24       8.3790      0.00000
     25       8.3826      0.00000
     26       9.0552      0.00000
     27      13.6114      0.00000
     28      13.6114      0.00000
     29      13.8248      0.00000
     30      15.8182      0.00000
     31      15.8211      0.00000
     32      15.8268      0.00000
     33      15.8288      0.00000
     34      15.8322      0.00000
     35      15.8398      0.00000
     36      16.9504      0.00000
     37      16.9514      0.00000
     38      16.9547      0.00000
     39      16.9738      0.00000
     40      16.9787      0.00000
     41      16.9808      0.00000
     42      16.9883      0.00000
     43      16.9960      0.00000
     44      17.0023      0.00000
     45      18.7091      0.00000
     46      18.7209      0.00000
     47      18.7252      0.00000
     48      18.7362      0.00000


--------------------------------------------------------------------------------------------------------


 soft charge-density along one line, spin component           1
         0         1         2         3         4         5         6         7         8         9
 total charge-density along one line
 
 pseudopotential strength for first ion, spin component:           1
 18.597  -0.001   0.000   0.000   0.000   0.000   0.000   0.000
 -0.001   0.006   0.000   0.000   0.000   0.000   0.000   0.000
  0.000   0.000   4.224   0.000   0.000  -0.005   0.000   0.000
  0.000   0.000   0.000   4.224   0.000   0.000  -0.005   0.000
  0.000   0.000   0.000   0.000   4.224   0.000   0.000  -0.005
  0.000   0.000  -0.005   0.000   0.000   0.005   0.000   0.000
  0.000   0.000   0.000  -0.005   0.000   0.000   0.005   0.000
  0.000   0.000   0.000   0.000  -0.005   0.000   0.000   0.005
 total augmentation occupancy for first ion, spin component:           1
  1.320  -1.086   0.001   0.000   0.001  -0.001   0.000  -0.001
 -1.086   1.010  -0.001  -0.001   0.000   0.002   0.000   0.000
  0.001  -0.001   1.124   0.000   0.000  -0.801   0.000   0.000
  0.000  -0.001   0.000   1.120   0.001  -0.001  -0.798  -0.001
  0.001   0.000   0.000   0.001   1.124   0.000  -0.001  -0.802
 -0.001   0.002  -0.801  -0.001   0.000   0.648   0.001   0.001
  0.000   0.000   0.000  -0.798  -0.001   0.001   0.645   0.001
 -0.001   0.000   0.000  -0.001  -0.802   0.001   0.001   0.648


----------------------------------------- Iteration    1(  12)  ---------------------------------------


    POTLOK:  cpu time    0.02: real time    0.03
    SETDIJ:  cpu time    0.02: real time    0.02
    EDDIAG:  cpu time    0.02: real time    0.02
  RMM-DIIS:  cpu time    0.05: real time    0.05
    ORTHCH:  cpu time    0.01: real time    0.01
       DOS:  cpu time    0.00: real time    0.00
    CHARGE:  cpu time    0.03: real time    0.03
    MIXING:  cpu time    0.00: real time    0.00
    --------------------------------------------
      LOOP:  cpu time    0.16: real time    0.16

 eigenvalue-minimisations  :   125
 total energy-change (2. order) :-0.8424587E-06  (-0.6920187E-07)
 number of electron      31.9999999 magnetization 
 augmentation part       -1.7274312 magnetization 

 Broyden mixing:
  rms(total) = 0.60714E-04    rms(broyden)= 0.60674E-04
  rms(prec ) = 0.85272E-04
  weight for this iteration     100.00

 eigenvalues of (default mixing * dielectric matrix)
  average eigenvalue GAMMA=   2.0015
  3.2242  2.7421  2.4480  2.0894  1.5445  1.0009  0.9611

 Free energy of the ion-electron system (eV)
  ---------------------------------------------------
  alpha Z        PSCENC =        12.68944982
  Ewald energy   TEWEN  =      -907.56602371
  -1/2 Hartree   DENC   =       -70.83278724
  -exchange  EXHF       =         0.00000000
  -V(xc)+E(xc)   XCENC  =       -72.91084186
  PAW double counting   =       307.74204126     -166.58341900
  entropy T*S    EENTRO =         0.00000000
  eigenvalues    EBANDS =        37.86274976
  atomic energy  EATOM  =       826.37398168
  ---------------------------------------------------
  free energy    TOTEN  =       -33.22484929 eV

  energy without entropy =      -33.22484929  energy(sigma->0) =      -33.22484929


--------------------------------------------------------------------------------------------------------




 average (electrostatic) potential at core
  the test charge radii are     0.9892
  (the norm of the test charge is              1.0000)
       1 -83.2262       2 -83.2269       3 -83.2319       4 -83.2270       5 -83.2255
       6 -83.2262       7 -83.2255       8 -83.2290
 
 
 
 E-fermi :   6.0541     XC(G=0):  -9.1311     alpha+bet :-11.7379


 k-point   1 :       0.0000    0.0000    0.0000
  band No.  band energies     occupation 
      1      -5.9500      2.00000
      2      -1.8805      2.00000
      3      -1.8733      2.00000
      4      -1.8690      2.00000
      5      -1.8585      2.00000
      6      -1.8545      2.00000
      7      -1.8539      2.00000
      8       3.0444      2.00000
      9       3.0476      2.00000
     10       3.0495      2.00000
     11       3.0511      2.00000
     12       3.0544      2.00000
[...]
    MIXING:  cpu time    0.00: real time    0.00
    --------------------------------------------
      LOOP:  cpu time    0.16: real time    0.16

 Broyden mixing:
  rms(total) = 0.72386E-02    rms(broyden)= 0.72382E-02
  rms(prec ) = 0.12440E-01
  weight for this iteration     100.00

 eigenvalues of (default mixing * dielectric matrix)
  average eigenvalue GAMMA=   2.0696
  3.0266  2.4794  1.1189  1.6534

 Free energy of the ion-electron system (eV)
  ---------------------------------------------------
  -1/2 Hartree   DENC   =        -4.61658329
  -V(xc)+E(xc)   XCENC  =         0.94980034
  PAW double counting   =         3.10360973       -3.15302528
  entropy T*S    EENTRO =         0.00000000
  eigenvalues    EBANDS =       -24.53006444
  ---------------------------------------------------
  free energy    TOTEN  =       -28.24626294 eV

  energy without entropy =      -28.24626294


----------------------------------------- Iteration    3(   7)  ---------------------------------------


   POT+DIJ:  cpu time    0.08: real time    0.08
    HAMIL1:  cpu time    0.00: real time    0.01
    LRDIAG:  cpu time    0.01: real time    0.01
    LRDIIS:  cpu time    0.02: real time    0.02
    LRDIAG:  cpu time    0.01: real time    0.01
    MIXING:  cpu time    0.00: real time    0.00
    --------------------------------------------
      LOOP:  cpu time    0.16: real time    0.16

 Broyden mixing:
  rms(total) = 0.53468E-03    rms(broyden)= 0.53387E-03
  rms(prec ) = 0.10304E-02
  weight for this iteration     100.00

 eigenvalues of (default mixing * dielectric matrix)
  average eigenvalue GAMMA=   1.9554
  3.0905  2.4192  1.1107  1.6748  1.4817

 Free energy of the ion-electron system (eV)
  ---------------------------------------------------
  -1/2 Hartree   DENC   =        -4.62963042
  -V(xc)+E(xc)   XCENC  =         0.95787561
  PAW double counting   =         3.06640586       -3.11526398
  entropy T*S    EENTRO =         0.00000000
  eigenvalues    EBANDS =       -24.56703719
  ---------------------------------------------------
  free energy    TOTEN  =       -28.28765013 eV

  energy without entropy =      -28.28765013


----------------------------------------- Iteration    3(   8)  ---------------------------------------


   POT+DIJ:  cpu time    0.08: real time    0.09
    HAMIL1:  cpu time    0.01: real time    0.01
    LRDIAG:  cpu time    0.01: real time    0.01
    LRDIIS:  cpu time    0.02: real time    0.02
    LRDIAG:  cpu time    0.01: real time    0.01
    MIXING:  cpu time    0.00: real time    0.00
    --------------------------------------------
      LOOP:  cpu time    0.17: real time    0.17

 Broyden mixing:
  rms(total) = 0.27496E-03    rms(broyden)= 0.27490E-03
  rms(prec ) = 0.40764E-03
  weight for this iteration     100.00

 eigenvalues of (default mixing * dielectric matrix)
  average eigenvalue GAMMA=   1.9033
  3.0871  2.4664  2.0261  1.6603  1.1299  1.0502

 Free energy of the ion-electron system (eV)
  ---------------------------------------------------
  -1/2 Hartree   DENC   =        -4.63284577
  -V(xc)+E(xc)   XCENC  =         0.95874242
  PAW double counting   =         3.06981813       -3.11873377
  entropy T*S    EENTRO =         0.00000000
  eigenvalues    EBANDS =       -24.56817971
  ---------------------------------------------------
  free energy    TOTEN  =       -28.29119871 eV

  energy without entropy =      -28.29119871


----------------------------------------- Iteration    3(   9)  ---------------------------------------


   POT+DIJ:  cpu time    0.08: real time    0.08
    HAMIL1:  cpu time    0.00: real time    0.01
    LRDIAG:  cpu time    0.01: real time    0.01
    LRDIIS:  cpu time    0.02: real time    0.02
    LRDIAG:  cpu time    0.01: real time    0.01
    MIXING:  cpu time    0.00: real time    0.00
    --------------------------------------------
      LOOP:  cpu time    0.16: real time    0.16

 Broyden mixing:
  rms(total) = 0.10722E-03    rms(broyden)= 0.10720E-03
  rms(prec ) = 0.16176E-03
  weight for this iteration     100.00

 eigenvalues of (default mixing * dielectric matrix)
  average eigenvalue GAMMA=   1.8934
  3.1735  2.7242  2.4057  1.6758  1.2760  1.0994  0.8994

 Free energy of the ion-electron system (eV)
  ---------------------------------------------------
  -1/2 Hartree   DENC   =        -4.63250498
  -V(xc)+E(xc)   XCENC  =         0.95867498
  PAW double counting   =         3.07182238       -3.12077272
  entropy T*S    EENTRO =         0.00000000
  eigenvalues    EBANDS =       -24.56844243
  ---------------------------------------------------
  free energy    TOTEN  =       -28.29122278 eV

  energy without entropy =      -28.29122278


----------------------------------------- Iteration    3(  10)  ---------------------------------------


   POT+DIJ:  cpu time    0.08: real time    0.08
    HAMIL1:  cpu time    0.00: real time    0.01
    LRDIAG:  cpu time    0.01: real time    0.01
    LRDIIS:  cpu time    0.02: real time    0.02
    LRDIAG:  cpu time    0.01: real time    0.01
    MIXING:  cpu time    0.00: real time    0.00
    --------------------------------------------
      LOOP:  cpu time    0.16: real time    0.16

 Broyden mixing:
  rms(total) = 0.16072E-04    rms(broyden)= 0.16063E-04
  rms(prec ) = 0.25487E-04
  weight for this iteration     100.00

 eigenvalues of (default mixing * dielectric matrix)
  average eigenvalue GAMMA=   1.8305
  3.1933  2.7679  2.4456  1.6709  1.4045  0.9900  1.1158  1.0558

 Free energy of the ion-electron system (eV)
  ---------------------------------------------------
  -1/2 Hartree   DENC   =        -4.63260424
  -V(xc)+E(xc)   XCENC  =         0.95872236
  PAW double counting   =         3.07301156       -3.12198264
  entropy T*S    EENTRO =         0.00000000
  eigenvalues    EBANDS =       -24.56870733
  ---------------------------------------------------
  free energy    TOTEN  =       -28.29156030 eV

  energy without entropy =      -28.29156030


----------------------------------------- Iteration    3(  11)  ---------------------------------------


   POT+DIJ:  cpu time    0.08: real time    0.08
    HAMIL1:  cpu time    0.00: real time    0.01
    LRDIAG:  cpu time    0.01: real time    0.01
    LRDIIS:  cpu time    0.02: real time    0.02
    LRDIAG:  cpu time    0.01: real time    0.01
    MIXING:  cpu time    0.00: real time    0.00
    --------------------------------------------
      LOOP:  cpu time    0.16: real time    0.16

 Broyden mixing:
  rms(total) = 0.38591E-05    rms(broyden)= 0.38569E-05
  rms(prec ) = 0.54567E-05
  weight for this iteration     100.00

 eigenvalues of (default mixing * dielectric matrix)
  average eigenvalue GAMMA=   1.8783
  3.2011  2.7982  2.4399  2.2799  1.6724  1.4020  1.1087  1.0011  1.0011

 Free energy of the ion-electron system (eV)
  ---------------------------------------------------
  -1/2 Hartree   DENC   =        -4.63260343
  -V(xc)+E(xc)   XCENC  =         0.95871701
  PAW double counting   =         3.07311757       -3.12209046
  entropy T*S    EENTRO =         0.00000000
  eigenvalues    EBANDS =       -24.56868900
  ---------------------------------------------------
  free energy    TOTEN  =       -28.29154831 eV

  energy without entropy =      -28.29154831


----------------------------------------- Iteration    3(  12)  ---------------------------------------


   POT+DIJ:  cpu time    0.08: real time    0.08
    HAMIL1:  cpu time    0.00: real time    0.01
    LRDIAG:  cpu time    0.01: real time    0.01
    LRDIIS:  cpu time    0.02: real time    0.02
    LRDIAG:  cpu time    0.01: real time    0.01
    MIXING:  cpu time    0.00: real time    0.00
    --------------------------------------------
      LOOP:  cpu time    0.16: real time    0.16

 Broyden mixing:
  rms(total) = 0.12727E-05    rms(broyden)= 0.12724E-05
  rms(prec ) = 0.18424E-05
  weight for this iteration     100.00

 eigenvalues of (default mixing * dielectric matrix)
  average eigenvalue GAMMA=   1.8368
  3.2042  2.8041  2.5298  2.4432  1.6710  1.2992  1.2992  1.1098  1.0038  1.0038

 Free energy of the ion-electron system (eV)
  ---------------------------------------------------
  -1/2 Hartree   DENC   =        -4.63260376
  -V(xc)+E(xc)   XCENC  =         0.95871687
  PAW double counting   =         3.07304422       -3.12201584
  entropy T*S    EENTRO =         0.00000000
  eigenvalues    EBANDS =       -24.56869051
  ---------------------------------------------------
  free energy    TOTEN  =       -28.29154902 eV

  energy without entropy =      -28.29154902


----------------------------------------- Iteration    3(  13)  ---------------------------------------


   POT+DIJ:  cpu time    0.08: real time    0.08
    HAMIL1:  cpu time    0.01: real time    0.01
    LRDIAG:  cpu time    0.01: real time    0.01
    LRDIIS:  cpu time    0.02: real time    0.02
    LRDIAG:  cpu time    0.01: real time    0.01
    MIXING:  cpu time    0.00: real time    0.00
    --------------------------------------------
      LOOP:  cpu time    0.16: real time    0.16

 Broyden mixing:
  rms(total) = 0.23626E-06    rms(broyden)= 0.23617E-06
  rms(prec ) = 0.43539E-06
  weight for this iteration     100.00

 eigenvalues of (default mixing * dielectric matrix)
  average eigenvalue GAMMA=   1.8183
  3.2061  2.8373  2.4486  2.5878  1.6921  1.6539  1.3262  1.0005  1.0005  1.0992
  1.1493

 Free energy of the ion-electron system (eV)
  ---------------------------------------------------
  -1/2 Hartree   DENC   =        -4.63260586
  -V(xc)+E(xc)   XCENC  =         0.95871719
  PAW double counting   =         3.07301563       -3.12198674
  entropy T*S    EENTRO =         0.00000000
  eigenvalues    EBANDS =       -24.56869033
  ---------------------------------------------------
  free energy    TOTEN  =       -28.29155011 eV

  energy without entropy =      -28.29155011


------------------------ aborting loop because EDIFF is reached ----------------------------------------


 change of polarisation eV/A/(eV/A) component  3 :    -0.069     0.016    50.540
 dielectric tensor                  component  3 :    -0.076     0.018    56.878


--------------------------------------------------------------------------------------------------------


    FORLOC:  cpu time    0.00: real time    0.00
    FORNL :  cpu time    0.10: real time    0.10
    STRESS:  cpu time    0.30: real time    0.31
    FORCOR:  cpu time    0.02: real time    0.02
    FORLOC:  cpu time    0.00: real time    0.00
    FORNL :  cpu time    0.10: real time    0.10
    STRESS:  cpu time    0.30: real time    0.31
    FORCOR:  cpu time    0.02: real time    0.02
    FORNLD:  cpu time    0.01: real time    0.01

 PIEZOELECTRIC TENSOR FIELD DIRECTION 3  (e Angst)
 -----------------------------------------------------------------------------
     0.00500  0.00004  0.00233           ( -0.00001  0.00003 -0.00002)
     0.00004  0.01344 -0.00197           (  0.00003  0.00001  0.00002)
     0.00233 -0.00197  0.00148           ( -0.00002  0.00002 -0.00003)

 PIEZOELECTRIC TENSOR FIELD DIRECTION 3  (C/m^2)
 -----------------------------------------------------------------------------
     0.00049  0.00000  0.00023
     0.00000  0.00132 -0.00019
     0.00023 -0.00019  0.00014


      POSITION         DIRECTION 3           BORN EFFECTIVE CHARGE    (rigid.aug.   ionic)
 -----------------------------------------------------------------------------------------
      0.00122      0.00000      0.00219    -0.13706  0.19320 -5.77150 (  0.21592  4.00000)
      1.36750      1.36969      1.36600     0.06356 -0.12000 -5.78654 (  0.21592  4.00000)
      2.73719      2.73350      5.46644     0.11347  0.00164 -5.67771 (  0.21597  4.00000)
      4.10100      4.09894      1.36633     0.09257  0.15921 -5.78469 (  0.21593  4.00000)
      2.73144      5.46883      2.73514     0.13703 -0.01126 -5.82950 (  0.21591  4.00000)
      4.10133      1.36764      4.10585    -0.06140 -0.15487 -5.79323 (  0.21592  4.00000)
      0.00014      2.73835      2.73489    -0.10570 -0.19292 -5.83218 (  0.21591  4.00000)
      1.37085      4.10239      4.10370    -0.08954  0.12094 -5.73655 (  0.21594  4.00000)
 -----------------------------------------------------------------------------------------
    total drift (improves with k-points):   0.01293 -0.00407-46.21190




--------------------------------------------------------------------------------------------------------


  LATTYP: Found a simple cubic cell.
 ALAT       =     5.4700000000
  
  Lattice vectors:
  
 A1 = (   5.4700000000,   0.0000000000,   0.0000000000)
 A2 = (   0.0000000000,   5.4700000000,   0.0000000000)
 A3 = (   0.0000000000,   0.0000000000,   5.4700000000)


Analysis of symmetry for initial positions (statically):
=====================================================================
 Subroutine PRICEL returns:
 Original cell was already a primitive cell.
 

 Routine SETGRP: Setting up the symmetry group for a 
 simple cubic supercell.


 Subroutine GETGRP returns: Found  1 space group operations
 (whereof  1 operations were pure point group operations)
 out of a pool of 48 trial point group operations.


The static configuration has the point symmetry C_1 .


Analysis of symmetry for dynamics (positions and initial velocities):
=====================================================================
 Subroutine PRICEL returns:
 Original cell was already a primitive cell.
 

 Routine SETGRP: Setting up the symmetry group for a 
 simple cubic supercell.


 Subroutine GETGRP returns: Found  1 space group operations
 (whereof  1 operations were pure point group operations)
 out of a pool of 48 trial point group operations.


The dynamic configuration has the point symmetry C_1 .


 MACROSCOPIC STATIC DIELECTRIC TENSOR (including local field effects in DFT)
 ------------------------------------------------------
          56.882574     0.114542    -0.075987
           0.114543    56.872317     0.017945
          -0.075987     0.017945    56.878085
 ------------------------------------------------------



--------------------------------------------------------------------------------------------------------


  LATTYP: Found a simple cubic cell.
 ALAT       =     5.4700000000
  
  Lattice vectors:
  
 A1 = (   5.4700000000,   0.0000000000,   0.0000000000)
 A2 = (   0.0000000000,   5.4700000000,   0.0000000000)
 A3 = (   0.0000000000,   0.0000000000,   5.4700000000)


Analysis of symmetry for initial positions (statically):
=====================================================================
 Subroutine PRICEL returns:
 Original cell was already a primitive cell.
 

 Routine SETGRP: Setting up the symmetry group for a 
 simple cubic supercell.


 Subroutine GETGRP returns: Found  1 space group operations
 (whereof  1 operations were pure point group operations)
 out of a pool of 48 trial point group operations.


The static configuration has the point symmetry C_1 .


Analysis of symmetry for dynamics (positions and initial velocities):
=====================================================================
 Subroutine PRICEL returns:
 Original cell was already a primitive cell.
 

 Routine SETGRP: Setting up the symmetry group for a 
 simple cubic supercell.


 Subroutine GETGRP returns: Found  1 space group operations
 (whereof  1 operations were pure point group operations)
 out of a pool of 48 trial point group operations.


The dynamic configuration has the point symmetry C_1 .
 
 KPOINTS: Automatic mesh                          

Automatic generation of k-mesh.
Space group operators:
 irot       det(A)        alpha          n_x          n_y          n_z        tau_x        tau_y        tau_z
    1     1.000000     0.000001     1.000000     0.000000     0.000000     0.000000     0.000000     0.000000
 
 Subroutine IBZKPT returns following result:
 ===========================================
 
 Found      1 irreducible k-points:
 
 Following reciprocal coordinates:
            Coordinates               Weight
  0.000000  0.000000  0.000000      1.000000
 
 Following cartesian coordinates:
            Coordinates               Weight
  0.000000  0.000000  0.000000      1.000000
 


--------------------------------------------------------------------------------------------------------




 MACROSCOPIC STATIC DIELECTRIC TENSOR (including local field effects in DFT)
 ------------------------------------------------------
          56.882574     0.114542    -0.075987
           0.114543    56.872317     0.017945
          -0.075987     0.017945    56.878085
 ------------------------------------------------------


 PIEZOELECTRIC TENSOR  for field in x, y, z        (e  Angst)
          XX          YY          ZZ          XY          YZ          ZX
  --------------------------------------------------------------------------------
  x    -0.00387    -0.00971    -0.01347     0.00277    -0.00151    -0.00527
  y     0.00882     0.00285     0.00054     0.00246     0.00019     0.00150
  z     0.00500     0.01344     0.00148     0.00004    -0.00197     0.00233

 PIEZOELECTRIC TENSOR  for field in x, y, z        (C/m^2)
          XX          YY          ZZ          XY          YZ          ZX
  --------------------------------------------------------------------------------
  x    -0.00038    -0.00095    -0.00132     0.00027    -0.00015    -0.00052
  y     0.00086     0.00028     0.00005     0.00024     0.00002     0.00015
  z     0.00049     0.00132     0.00014     0.00000    -0.00019     0.00023
 
 BORN EFFECTIVE CHARGES (in e, cummulative output)
 -------------------------------------------------
 ion    1
    1    -5.81544    -0.11152     0.09065
    2     0.11712    -5.81677    -0.19164
    3    -0.13706     0.19320    -5.77150
 ion    2
    1    -5.77428     0.18354    -0.15226
    2    -0.19615    -5.78703     0.10196
    3     0.06356    -0.12000    -5.78654
 ion    3
    1    -5.67981     0.10633    -0.10227
    2    -0.12004    -5.67613    -0.04581
    3     0.11347     0.00164    -5.67771
 ion    4
    1    -5.78586    -0.18652    -0.10558
    2     0.19094    -5.77548    -0.08320
    3     0.09257     0.15921    -5.78469
 ion    5
    1    -5.78797    -0.15854    -0.08920
    2     0.09059    -5.82931     0.03535
    3     0.13703    -0.01126    -5.82950
 ion    6
    1    -5.80264     0.00917     0.15301
    2     0.05917    -5.80407     0.08852
    3    -0.06140    -0.15487    -5.79323
 ion    7
    1    -5.82727     0.15385     0.11282
    2    -0.09348    -5.78761     0.19274
    3    -0.10570    -0.19292    -5.83218
 ion    8
    1    -5.73927    -0.02275     0.10564
    2    -0.07444    -5.73527    -0.10187
    3    -0.08954     0.12094    -5.73655


--------------------------------------------------------------------------------------------------------


     LOOP+:  cpu time   21.07: real time   21.46
    4ORBIT:  cpu time    0.00: real time    0.00

 total amount of memory used by VASP on root node    32224. kBytes
========================================================================

   base      :      30000. kBytes
   nonl-proj :        202. kBytes
   fftplans  :        782. kBytes
   grid      :       1198. kBytes
   one-center:         24. kBytes
   wavefun   :         18. kBytes
 
  
  
 General timing and accounting informations for this job:
 ========================================================
  
                  Total CPU time used (sec):       21.692
                            User time (sec):       16.949
                          System time (sec):        4.742
                         Elapsed time (sec):       23.726
  
                   Maximum memory used (kb):       70332.
                   Average memory used (kb):           0.
  
                          Minor page faults:       201183
                          Major page faults:            0
                 Voluntary context switches:         1455
