 vasp.5.3.3 18Dez12 (build Jan  9 2014 12:00:49) complex                        
  
 executed on             LinuxIFC date 2014.01.29  10:08:41
 running on   48 total cores
 distrk:  each k-point on   48 cores,    1 groups
 distr:  one band on NCORES_PER_BAND=   1 cores,   48 groups


--------------------------------------------------------------------------------------------------------


 INCAR:
 POTCAR:    PAW Si                                

 ----------------------------------------------------------------------------- 
|                                                                             |
|           W    W    AA    RRRRR   N    N  II  N    N   GGGG   !!!           |
|           W    W   A  A   R    R  NN   N  II  NN   N  G    G  !!!           |
|           W    W  A    A  R    R  N N  N  II  N N  N  G       !!!           |
|           W WW W  AAAAAA  RRRRR   N  N N  II  N  N N  G  GGG   !            |
|           WW  WW  A    A  R   R   N   NN  II  N   NN  G    G                |
|           W    W  A    A  R    R  N    N  II  N    N   GGGG   !!!           |
|                                                                             |
|      For optimal performance we recommend that you set                      |
|        NPAR = 4 - approx SQRT( number of cores)                             |
|      (number of cores/NPAR must be integer)                                 |
|      This setting will greatly improve the performance of VASP for DFT.     |
|      The default NPAR=number of cores might be grossly inefficient          |
|      on modern multi-core architectures or massively parallel machines.     |
|      Do your own testing.                                                   |
|      Unfortunately you need to use the default for hybrid, GW and RPA       |
|      calculations.                                                          |
|                                                                             |
 ----------------------------------------------------------------------------- 

 POTCAR:    PAW Si                                
   VRHFIN =Si: s2p2                                                             
   LEXCH  = 91                                                                  
   EATOM  =   103.3076 eV,    7.5929 Ry                                         
                                                                                
   TITEL  = PAW Si                                                              
   LULTRA =        F    use ultrasoft PP ?                                      
   IUNSCR =        1    unscreen: 0-lin 1-nonlin 2-no                           
   RPACOR =    1.500    partial core radius                                     
   POMASS =   28.085; ZVAL   =    4.000    mass and valenz                      
   RCORE  =    1.900    outmost cutoff radius                                   
   RWIGS  =    2.480; RWIGS  =    1.312    wigner-seitz radius (au A)           
   ENMAX  =  245.435; ENMIN  =  184.076 eV                                      
   ICORE  =        2    local potential                                         
   LCOR   =        T    correct aug charges                                     
   LPAW   =        T    paw PP                                                  
   EAUG   =  322.069                                                            
   DEXC   =    -.001                                                            
   RMAX   =    2.943    core radius for proj-oper                               
   RAUG   =    1.300    factor for augmentation sphere                          
   RDEP   =    1.993    core radius for depl-charge                             
   QCUT   =   -4.247; QGAM   =    8.494    optimization parameters              
                                                                                
   Description                                                                  
     l     E      TYP  RCUT    TYP  RCUT                                        
     0   .000     23  1.900                                                     
     0   .000     23  1.900                                                     
     1   .000     23  1.900                                                     
     1   .000     23  1.900                                                     
     2   .000      7  1.900                                                     
  local pseudopotential read in
  partial core-charges read in
  atomic valenz-charges read in
  non local Contribution for L=           0  read in
    real space projection operators read in
  non local Contribution for L=           0  read in
    real space projection operators read in
  non local Contribution for L=           1  read in
    real space projection operators read in
  non local Contribution for L=           1  read in
    real space projection operators read in
    PAW grid and wavefunctions read in
 
   number of l-projection  operators is LMAX  =           4
   number of lm-projection operators is LMMAX =           8
 
  PAW Si                                :
 energy of atom  1       EATOM= -103.3076
 kinetic energy error for atom=    0.0109 (will be added to EATOM!!)
 
 
 POSCAR: OUTCAR.0018.-1.out 1.0e-02              
  positions in cartesian coordinates
  No initial velocities read in
 exchange correlation table for  LEXCH =        7
   RHO(1)=    0.500       N(1)  =     2000
   RHO(2)=  100.500       N(2)  =     4000

 VTST: version 3.0c, (01/09/14)

 CHAIN: initializing optimizer
 
 OPT: Using VASP Dynamics algorithm
 CHAIN: Read ICHAIN            0
 
 POSCAR: OUTCAR.0018.-1.out 1.0e-02              
  positions in cartesian coordinates
  No initial velocities read in
 


--------------------------------------------------------------------------------------------------------


 ion  position               nearest neighbor table
   1  1.000  1.000  1.000-   8 2.37   4 2.37   6 2.37   2 2.37
   2  0.250  0.250  0.250-   7 2.37   5 2.37   3 2.37   1 2.37
   3  0.500  0.500  0.001-   2 2.37   4 2.37   8 2.37   6 2.38
   4  0.750  0.751  0.250-   5 2.37   1 2.37   3 2.37   7 2.37
   5  0.501  0.000  0.500-   6 2.36   4 2.37   2 2.37   8 2.37
   6  0.750  0.250  0.749-   7 2.36   5 2.36   1 2.37   3 2.38
   7  1.000  0.499  0.500-   6 2.36   2 2.37   8 2.37   4 2.37
   8  0.249  0.750  0.750-   1 2.37   7 2.37   3 2.37   5 2.37
 
  LATTYP: Found a simple cubic cell.
 ALAT       =     5.4700000000
  
  Lattice vectors:
  
 A1 = (   5.4700000000,   0.0000000000,   0.0000000000)
 A2 = (   0.0000000000,   5.4700000000,   0.0000000000)
 A3 = (   0.0000000000,   0.0000000000,   5.4700000000)


Analysis of symmetry for initial positions (statically):
=====================================================================
 Subroutine PRICEL returns:
 Original cell was already a primitive cell.
 

 Routine SETGRP: Setting up the symmetry group for a 
 simple cubic supercell.


 Subroutine GETGRP returns: Found  1 space group operations
 (whereof  1 operations were pure point group operations)
 out of a pool of 48 trial point group operations.


The static configuration has the point symmetry C_1 .


Analysis of symmetry for dynamics (positions and initial velocities):
=====================================================================
 Subroutine PRICEL returns:
 Original cell was already a primitive cell.
 

 Routine SETGRP: Setting up the symmetry group for a 
 simple cubic supercell.


 Subroutine GETGRP returns: Found  1 space group operations
 (whereof  1 operations were pure point group operations)
 out of a pool of 48 trial point group operations.


The dynamic configuration has the point symmetry C_1 .


 irot  :   1
 --------------------------------------------------------------------
 isymop:   1   0   0
           0   1   0
           0   0   1

 gtrans:     0.0000000     0.0000000     0.0000000

 ptrans:     0.0000000     0.0000000     0.0000000
 rotmap:
 (   1->   1)  (   2->   2)  (   3->   3)  (   4->   4)  (   5->   5) 
 (   6->   6)  (   7->   7)  (   8->   8) 
 
 
 KPOINTS: Automatic mesh                          

Automatic generation of k-mesh.
Space group operators:
 irot       det(A)        alpha          n_x          n_y          n_z        tau_x        tau_y        tau_z
    1     1.000000     0.000001     1.000000     0.000000     0.000000     0.000000     0.000000     0.000000
 
 Subroutine IBZKPT returns following result:
 ===========================================
 
 Found      1 irreducible k-points:
 
 Following reciprocal coordinates:
            Coordinates               Weight
  0.000000  0.000000  0.000000      1.000000
 
 Following cartesian coordinates:
            Coordinates               Weight
  0.000000  0.000000  0.000000      1.000000
 
 
 Subroutine IBZKPT_HF returns following result:
 ==============================================
 
 Found      1 k-points in 1st BZ
 the following      1 k-points will be used (e.g. in the exchange kernel)
 Following reciprocal coordinates:   # in IRBZ
  0.000000  0.000000  0.000000       1 t-inv F


--------------------------------------------------------------------------------------------------------




 Dimension of arrays:
   k-points           NKPTS =      1   k-points in BZ     NKDIM =      1   number of bands    NBANDS=     48
   number of dos      NEDOS =    301   number of ions     NIONS =      8
   non local maximal  LDIM  =      4   non local SUM 2l+1 LMDIM =      8
   total plane-waves  NPLWV =  21952
   max r-space proj   IRMAX =      1   max aug-charges    IRDMAX=  36071
   dimension x,y,z NGX =    28 NGY =   28 NGZ =   28
   dimension x,y,z NGXF=    56 NGYF=   56 NGZF=   56
   support grid    NGXF=   112 NGYF=  112 NGZF=  112
   ions per type =               8
 NGX,Y,Z   is equivalent  to a cutoff of   8.51,  8.51,  8.51 a.u.
 NGXF,Y,Z  is equivalent  to a cutoff of  17.02, 17.02, 17.02 a.u.


 I would recommend the setting:
   dimension x,y,z NGX =    19 NGY =   19 NGZ =   19
 SYSTEM =  NAPTHA04                                
 POSCAR =  OUTCAR.0018.-1.out 1.0e-02              

 Startparameter for this run:
   NWRITE =      3    write-flag & timer
   PREC   = normal    normal or accurate (medium, high low for compatibility)
   ISTART =      0    job   : 0-new  1-cont  2-samecut
   ICHARG =      2    charge: 1-file 2-atom 10-const
   ISPIN  =      1    spin polarized calculation?
   LNONCOLLINEAR =      F non collinear calculations
   LSORBIT =      F    spin-orbit coupling
   INIWAV =      1    electr: 0-lowe 1-rand  2-diag
   LASPH  =      F    aspherical Exc in radial PAW
   METAGGA=      F    non-selfconsistent MetaGGA calc.

 Electronic Relaxation 1
   ENCUT  =  200.0 eV  14.70 Ry    3.83 a.u.   6.31  6.31  6.31*2*pi/ulx,y,z
   ENINI  =  200.0     initial cutoff
   ENAUG  =  322.1 eV  augmentation charge cutoff
   NELM   =     60;   NELMIN=  2; NELMDL= -5     # of ELM steps 
   EDIFF  = 0.1E-07   stopping-criterion for ELM
   LREAL  =      F    real-space projection
   NLSPLINE    = F    spline interpolate recip. space projectors
   LCOMPAT=      F    compatible to vasp.4.4
   GGA_COMPAT  = T    GGA compatible to vasp.4.4-vasp.4.6
   LMAXPAW     = -100 max onsite density
   LMAXMIX     =    2 max onsite mixed and CHGCAR
   VOSKOWN=      0    Vosko Wilk Nusair interpolation
   ROPT   =    0.00000
 Ionic relaxation
   EDIFFG = 0.1E-06   stopping-criterion for IOM
   NSW    =      0    number of steps for IOM
   NBLOCK =      1;   KBLOCK =      1    inner block; outer block 
   IBRION =     -1    ionic relax: 0-MD 1-quasi-New 2-CG
   NFREE  =      0    steps in history (QN), initial steepest desc. (CG)
   ISIF   =      2    stress and relaxation
   IWAVPR =     10    prediction:  0-non 1-charg 2-wave 3-comb
   ISYM   =      2    0-nonsym 1-usesym 2-fastsym
   LCORR  =      T    Harris-Foulkes like correction to forces

   POTIM  = 0.5000    time-step for ionic-motion
   TEIN   =    0.0    initial temperature
   TEBEG  =    0.0;   TEEND  =   0.0 temperature during run
   SMASS  =  -3.00    Nose mass-parameter (am)
   estimated Nose-frequenzy (Omega)   =  0.10E-29 period in steps =****** mass=  -0.684E-27a.u.
   SCALEE = 1.0000    scale energy and forces
   NPACO  =    256;   APACO  = 16.0  distance and # of slots for P.C.
   PSTRESS=    0.0 pullay stress

  Mass of Ions in am
   POMASS =  28.09
  Ionic Valenz
   ZVAL   =   4.00
  Atomic Wigner-Seitz radii
   RWIGS  =  -1.00
  virtual crystal weights 
   VCA    =   1.00
   NELECT =      32.0000    total number of electrons
   NUPDOWN=      -1.0000    fix difference up-down

 DOS related values:
   EMIN   =  10.00;   EMAX   =-10.00  energy-range for DOS
   EFERMI =   0.00
   ISMEAR =     0;   SIGMA  =   0.02  broadening in eV -4-tet -1-fermi 0-gaus

 Electronic relaxation 2 (details)
   IALGO  =     68    algorithm
   LDIAG  =      T    sub-space diagonalisation (order eigenvalues)
   LSUBROT=      T    optimize rotation matrix (better conditioning)
   TURBO    =      0    0=normal 1=particle mesh
   IRESTART =      0    0=no restart 2=restart with 2 vectors
   NREBOOT  =      0    no. of reboots
   NMIN     =      0    reboot dimension
   EREF     =   0.00    reference energy to select bands
   IMIX   =      4    mixing-type and parameters
     AMIX     =   0.40;   BMIX     =  1.00
     AMIX_MAG =   1.60;   BMIX_MAG =  1.00
     AMIN     =   0.10
     WC   =   100.;   INIMIX=   1;  MIXPRE=   1;  MAXMIX= -45

 Intra band minimization:
   WEIMIN = 0.0000     energy-eigenvalue tresh-hold
   EBREAK =  0.52E-10  absolut break condition
   DEPER  =   0.30     relativ break condition  

   TIME   =   0.40     timestep for ELM

  volume/ion in A,a.u.               =      20.46       138.06
  Fermi-wavevector in a.u.,A,eV,Ry     =   0.950176  1.795573 12.283814  0.902835
  Thomas-Fermi vector in A             =   2.078528
 
 Write flags
   LWAVE  =      F    write WAVECAR
   LCHARG =      F    write CHGCAR
   LVTOT  =      F    write LOCPOT, total local potential
   LVHAR  =      F    write LOCPOT, Hartree potential only
   LELF   =      F    write electronic localiz. function (ELF)
   LORBIT =      0    0 simple, 1 ext, 2 COOP (PROOUT)


 Dipole corrections
   LMONO  =      F    monopole corrections only (constant potential shift)
   LDIPOL =      F    correct potential (dipole corrections)
   IDIPOL =      0    1-x, 2-y, 3-z, 4-all directions 
   EPSILON=  1.0000000 bulk dielectric constant

 Exchange correlation treatment:
   GGA     =    --    GGA type
   LEXCH   =     7    internal setting for exchange type
   VOSKOWN=      0    Vosko Wilk Nusair interpolation
   LHFCALC =     F    Hartree Fock is set to
   LHFONE  =     F    Hartree Fock one center treatment
   AEXX    =    0.0000 exact exchange contribution

 Linear response parameters
   LEPSILON=     T    determine dielectric tensor
   LRPA    =     F    only Hartree local field effects (RPA)
   LNABLA  =     F    use nabla operator in PAW spheres
   LVEL    =     F    velocity operator in full k-point grid
   LINTERFAST=   F  fast interpolation
   KINTER  =     0    interpolate to denser k-point grid
   CSHIFT  =0.1000    complex shift for real part using Kramers Kronig
   OMEGAMAX=  -1.0    maximum frequency
   DEG_THRESHOLD= 0.2000000E-02 threshold for treating states as degnerate
   RTIME   =    0.100 relaxation time in fs

 Orbital magnetization related:
   ORBITALMAG=     F  switch on orbital magnetization
   LCHIMAG   =     F  perturbation theory with respect to B field
   DQ        =  0.001000  dq finite difference perturbation B field



--------------------------------------------------------------------------------------------------------


 Static calculation
 charge density and potential will be updated during run
 non-spin polarized calculation
 RMM-DIIS sequential band-by-band and
  variant of blocked Davidson during initial phase
 perform sub-space diagonalisation
    before iterative eigenvector-optimisation
 modified Broyden-mixing scheme, WC =      100.0
 initial mixing is a Kerker type mixing with AMIX =  0.4000 and BMIX =      1.0000
 Hartree-type preconditioning will be used
 using additional bands           32
 reciprocal scheme for non local part
 use partial core corrections
 calculate Harris-corrections to forces 
   (improved forces if not selfconsistent)
 use gradient corrections 
 use of overlap-Matrix (Vanderbilt PP)
 Gauss-broadening in eV      SIGMA  =   0.02


--------------------------------------------------------------------------------------------------------


  energy-cutoff  :      200.00
  volume of cell :      163.67
      direct lattice vectors                 reciprocal lattice vectors
     5.470000000  0.000000000  0.000000000     0.182815356  0.000000000  0.000000000
     0.000000000  5.470000000  0.000000000     0.000000000  0.182815356  0.000000000
     0.000000000  0.000000000  5.470000000     0.000000000  0.000000000  0.182815356

  length of vectors
     5.470000000  5.470000000  5.470000000     0.182815356  0.182815356  0.182815356


 
 k-points in units of 2pi/SCALE and weight: Automatic mesh                          
   0.00000000  0.00000000  0.00000000       1.000
 
 k-points in reciprocal lattice and weights: Automatic mesh                          
   0.00000000  0.00000000  0.00000000       1.000
 
 position of ions in fractional coordinates (direct lattice) 
   0.99977687  0.99999953  0.99959931
   0.24999953  0.24959931  0.25027386
   0.49959931  0.50027386  0.00065036
   0.75027386  0.75065036  0.25021413
   0.50065036  0.00021413  0.49997378
   0.75021413  0.24997378  0.74938668
   0.99997378  0.49938668  0.50001994
   0.24938668  0.75001994  0.74978112
 
 position of ions in cartesian coordinates  (Angst):
   5.46877949  5.46999743  5.46780821
   1.36749743  1.36530821  1.36899799
   2.73280821  2.73649799  0.00355748
   4.10399799  4.10605748  1.36867131
   2.73855748  0.00117131  2.73485658
   4.10367131  1.36735658  4.09914517
   5.46985658  2.73164517  2.73510908
   1.36414517  4.10260908  4.10130271
 


--------------------------------------------------------------------------------------------------------


 k-point  1 :   0.0000 0.0000 0.0000  plane waves:    1021

 maximum and minimum number of plane-waves per node :      1021     1021

 maximum number of plane-waves:      1021
 maximum index in each direction: 
   IXMAX=    6   IYMAX=    6   IZMAX=    6
   IXMIN=   -6   IYMIN=   -6   IZMIN=   -6

 NGX is ok and might be reduce to  26
 NGY is ok and might be reduce to  26
 NGZ is ok and might be reduce to  26

 serial   3D FFT for wavefunctions
 parallel 3D FFT for charge:
    minimum data exchange during FFTs selected (reduces bandwidth)


 total amount of memory used by VASP on root node    32224. kBytes
========================================================================

   base      :      30000. kBytes
   nonl-proj :        202. kBytes
   fftplans  :        782. kBytes
   grid      :       1198. kBytes
   one-center:         24. kBytes
   wavefun   :         18. kBytes
 
 Broyden mixing: mesh for mixing (old mesh)
   NGX = 13   NGY = 13   NGZ = 13
  (NGX  = 56   NGY  = 56   NGZ  = 56)
  gives a total of   2197 points

 initial charge density was supplied:
 charge density of overlapping atoms calculated
 number of electron      32.0000000 magnetization 
 keeping initial charge density in first step


--------------------------------------------------------------------------------------------------------


 Maximum index for augmentation-charges         1784 (set IRDMAX)


--------------------------------------------------------------------------------------------------------


 First call to EWALD:  gamma=   0.324
 Maximum number of real-space cells 3x 3x 3
 Maximum number of reciprocal cells 3x 3x 3

 FEWALD executed in parallel
    FEWALD:  cpu time    0.00: real time    0.00


----------------------------------------- Iteration    1(   1)  ---------------------------------------


    POTLOK:  cpu time    0.03: real time    0.03
    SETDIJ:  cpu time    0.02: real time    0.02
     EDDAV:  cpu time    0.41: real time    0.41
       DOS:  cpu time    0.00: real time    0.00
    --------------------------------------------
      LOOP:  cpu time    0.46: real time    0.48

 eigenvalue-minimisations  :    96
 total energy-change (2. order) :-0.1013487E+02  (-0.7956183E+03)
 number of electron      32.0000000 magnetization 
 augmentation part       32.0000000 magnetization 

 Free energy of the ion-electron system (eV)
  ---------------------------------------------------
  alpha Z        PSCENC =        12.68944982
  Ewald energy   TEWEN  =      -907.56601795
  -1/2 Hartree   DENC   =       -45.63681692
  -exchange  EXHF       =         0.00000000
  -V(xc)+E(xc)   XCENC  =       -76.79670354
  PAW double counting   =       265.93453375     -123.69690146
  entropy T*S    EENTRO =        -0.00023699
  eigenvalues    EBANDS =        38.56384162
  atomic energy  EATOM  =       826.37398168
  ---------------------------------------------------
  free energy    TOTEN  =       -10.13487000 eV

  energy without entropy =      -10.13463300  energy(sigma->0) =      -10.13475150


--------------------------------------------------------------------------------------------------------




 average (electrostatic) potential at core
  the test charge radii are     0.9892
  (the norm of the test charge is              1.0000)
       1 -84.3528       2 -84.3514       3 -84.3418       4 -84.3511       5 -84.3540
       6 -84.3527       7 -84.3540       8 -84.3473
 
 
 
 E-fermi :   6.6096     XC(G=0):  -9.5533     alpha+bet :-11.7379


 k-point   1 :       0.0000    0.0000    0.0000
  band No.  band energies     occupation 
      1      -6.5897      2.00000
      2      -2.4174      2.00000
      3      -2.2534      2.00000
      4      -2.1195      2.00000
      5      -2.0267      2.00000
      6      -1.8744      2.00000
      7      -1.6769      2.00000
      8       2.7404      2.00000
      9       2.8478      2.00000
     10       2.9913      2.00000
     11       3.1632      2.00000
     12       3.3475      2.00000
     13       4.0809      2.00000
     14       6.1385      2.00000
     15       6.3632      2.00000
     16       6.5670      1.99746
     17       6.6523      0.00254
     18       6.7998      0.00000
     19       6.9047      0.00000
     20       7.1720      0.00000
     21       7.3837      0.00000
     22       8.0393      0.00000
     23       8.9825      0.00000
     24       9.3778      0.00000
     25      10.4499      0.00000
     26      11.4486      0.00000
     27      13.5067      0.00000
     28      14.7705      0.00000
     29      16.5609      0.00000
     30      16.8898      0.00000
     31      17.3600      0.00000
     32      17.5852      0.00000
     33      17.9311      0.00000
     34      18.1318      0.00000
     35      18.4989      0.00000
     36      18.8777      0.00000
     37      19.3733      0.00000
     38      19.5080      0.00000
     39      19.8608      0.00000
     40      20.2558      0.00000
     41      21.1064      0.00000
     42      21.6905      0.00000
     43      22.1799      0.00000
     44      22.7689      0.00000
     45      23.8955      0.00000
     46      24.4000      0.00000
     47      24.8356      0.00000
     48      25.8336      0.00000


--------------------------------------------------------------------------------------------------------


 soft charge-density along one line, spin component           1
         0         1         2         3         4         5         6         7         8         9
 total charge-density along one line
 
 pseudopotential strength for first ion, spin component:           1
 18.662   0.000   0.000   0.000   0.000   0.000   0.000   0.000
  0.000   0.006   0.000   0.000   0.000   0.000   0.000   0.000
  0.000   0.000   4.216   0.000   0.000  -0.004   0.000   0.000
  0.000   0.000   0.000   4.216   0.000   0.000  -0.004   0.000
  0.000   0.000   0.000   0.000   4.216   0.000   0.000  -0.004
  0.000   0.000  -0.004   0.000   0.000   0.005   0.000   0.000
  0.000   0.000   0.000  -0.004   0.000   0.000   0.005   0.000
  0.000   0.000   0.000   0.000  -0.004   0.000   0.000   0.005
 total augmentation occupancy for first ion, spin component:           1
  2.000   0.000   0.000   0.000   0.000   0.000   0.000   0.000
  0.000   0.000   0.000   0.000   0.000   0.000   0.000   0.000
  0.000   0.000   0.667   0.000   0.000   0.000   0.000   0.000
  0.000   0.000   0.000   0.667   0.000   0.000   0.000   0.000
  0.000   0.000   0.000   0.000   0.667   0.000   0.000   0.000
  0.000   0.000   0.000   0.000   0.000   0.000   0.000   0.000
  0.000   0.000   0.000   0.000   0.000   0.000   0.000   0.000
  0.000   0.000   0.000   0.000   0.000   0.000   0.000   0.000


----------------------------------------- Iteration    1(   2)  ---------------------------------------


     EDDAV:  cpu time    0.98: real time    0.98
       DOS:  cpu time    0.00: real time    0.00
    --------------------------------------------
      LOOP:  cpu time    0.99: real time    0.99

 eigenvalue-minimisations  :   144
 total energy-change (2. order) :-0.2431568E+02  (-0.2431325E+02)
 number of electron      32.0000000 magnetization 
 augmentation part       32.0000000 magnetization 

 Free energy of the ion-electron system (eV)
  ---------------------------------------------------
  alpha Z        PSCENC =        12.68944982
  Ewald energy   TEWEN  =      -907.56601795
  -1/2 Hartree   DENC   =       -45.63681692
  -exchange  EXHF       =         0.00000000
  -V(xc)+E(xc)   XCENC  =       -76.79670354
  PAW double counting   =       265.93453375     -123.69690146
  entropy T*S    EENTRO =         0.00000000
  eigenvalues    EBANDS =        14.24792098
  atomic energy  EATOM  =       826.37398168
  ---------------------------------------------------
  free energy    TOTEN  =       -34.45055364 eV

  energy without entropy =      -34.45055364  energy(sigma->0) =      -34.45055364


--------------------------------------------------------------------------------------------------------




 average (electrostatic) potential at core
  the test charge radii are     0.9892
  (the norm of the test charge is              1.0000)
       1 -84.3528       2 -84.3514       3 -84.3418       4 -84.3511       5 -84.3540
       6 -84.3527       7 -84.3540       8 -84.3473
 
 
 
 E-fermi :   5.2501     XC(G=0):  -9.5533     alpha+bet :-11.7379


 k-point   1 :       0.0000    0.0000    0.0000
  band No.  band energies     occupation 
      1      -6.6372      2.00000
      2      -2.6432      2.00000
      3      -2.6422      2.00000
      4      -2.6386      2.00000
      5      -2.6246      2.00000
      6      -2.6180      2.00000
      7      -2.6084      2.00000
      8       2.3739      2.00000
      9       2.3758      2.00000
     10       2.3790      2.00000
     11       2.3841      2.00000
     12       2.3876      2.00000
     13       2.3955      2.00000
     14       5.0724      2.00000
     15       5.0803      2.00000
     16       5.0876      2.00000
     17       6.1408      0.00000
     18       6.1498      0.00000
     19       6.1574      0.00000
     20       6.1624      0.00000
     21       6.1632      0.00000
     22       6.1661      0.00000
     23       7.8530      0.00000
     24       7.8556      0.00000
     25       7.8631      0.00000
     26       8.1266      0.00000
     27      13.2005      0.00000
     28      13.2622      0.00000
     29      13.2699      0.00000
     30      15.1005      0.00000
     31      15.1314      0.00000
     32      15.1647      0.00000
     33      15.2521      0.00000
     34      15.3159      0.00000
     35      15.6425      0.00000
     36      16.3778      0.00000
     37      16.4292      0.00000
     38      16.4432      0.00000
     39      16.5460      0.00000
     40      16.7157      0.00000
     41      16.7513      0.00000
     42      16.7674      0.00000
     43      16.8699      0.00000
     44      17.2459      0.00000
     45      17.9177      0.00000
     46      17.9548      0.00000
     47      17.9967      0.00000
     48      18.0189      0.00000


--------------------------------------------------------------------------------------------------------


 soft charge-density along one line, spin component           1
         0         1         2         3         4         5         6         7         8         9
 total charge-density along one line
 
 pseudopotential strength for first ion, spin component:           1
 18.662   0.000   0.000   0.000   0.000   0.000   0.000   0.000
  0.000   0.006   0.000   0.000   0.000   0.000   0.000   0.000
  0.000   0.000   4.216   0.000   0.000  -0.004   0.000   0.000
  0.000   0.000   0.000   4.216   0.000   0.000  -0.004   0.000
  0.000   0.000   0.000   0.000   4.216   0.000   0.000  -0.004
  0.000   0.000  -0.004   0.000   0.000   0.005   0.000   0.000
  0.000   0.000   0.000  -0.004   0.000   0.000   0.005   0.000
  0.000   0.000   0.000   0.000  -0.004   0.000   0.000   0.005
 total augmentation occupancy for first ion, spin component:           1
  2.000   0.000   0.000   0.000   0.000   0.000   0.000   0.000
  0.000   0.000   0.000   0.000   0.000   0.000   0.000   0.000
  0.000   0.000   0.667   0.000   0.000   0.000   0.000   0.000
  0.000   0.000   0.000   0.667   0.000   0.000   0.000   0.000
  0.000   0.000   0.000   0.000   0.667   0.000   0.000   0.000
  0.000   0.000   0.000   0.000   0.000   0.000   0.000   0.000
  0.000   0.000   0.000   0.000   0.000   0.000   0.000   0.000
  0.000   0.000   0.000   0.000   0.000   0.000   0.000   0.000


----------------------------------------- Iteration    1(   3)  ---------------------------------------


     EDDAV:  cpu time    0.40: real time    0.40
       DOS:  cpu time    0.00: real time    0.00
    --------------------------------------------
      LOOP:  cpu time    0.40: real time    0.41

 eigenvalue-minimisations  :    96
 total energy-change (2. order) :-0.1670407E+00  (-0.1670407E+00)
 number of electron      32.0000000 magnetization 
 augmentation part       32.0000000 magnetization 

 Free energy of the ion-electron system (eV)
  ---------------------------------------------------
  alpha Z        PSCENC =        12.68944982
  Ewald energy   TEWEN  =      -907.56601795
  -1/2 Hartree   DENC   =       -45.63681692
  -exchange  EXHF       =         0.00000000
  -V(xc)+E(xc)   XCENC  =       -76.79670354
  PAW double counting   =       265.93453375     -123.69690146
  entropy T*S    EENTRO =         0.00000000
  eigenvalues    EBANDS =        14.08088027
  atomic energy  EATOM  =       826.37398168
  ---------------------------------------------------
  free energy    TOTEN  =       -34.61759435 eV

  energy without entropy =      -34.61759435  energy(sigma->0) =      -34.61759435


--------------------------------------------------------------------------------------------------------




 average (electrostatic) potential at core
  the test charge radii are     0.9892
  (the norm of the test charge is              1.0000)
       1 -84.3528       2 -84.3514       3 -84.3418       4 -84.3511       5 -84.3540
       6 -84.3527       7 -84.3540       8 -84.3473
 
 
 
 E-fermi :   5.2124     XC(G=0):  -9.5533     alpha+bet :-11.7379


 k-point   1 :       0.0000    0.0000    0.0000
  band No.  band energies     occupation 
      1      -6.6372      2.00000
      2      -2.6454      2.00000
      3      -2.6450      2.00000
      4      -2.6399      2.00000
      5      -2.6265      2.00000
      6      -2.6203      2.00000
      7      -2.6112      2.00000
      8       2.3693      2.00000
      9       2.3730      2.00000
     10       2.3773      2.00000
     11       2.3792      2.00000
     12       2.3809      2.00000
     13       2.3861      2.00000
     14       5.0621      2.00000
     15       5.0658      2.00000
     16       5.0721      2.00000
     17       6.1375      0.00000
     18       6.1469      0.00000
     19       6.1545      0.00000
     20       6.1574      0.00000
     21       6.1605      0.00000
     22       6.1622      0.00000
     23       7.8465      0.00000
     24       7.8500      0.00000
     25       7.8522      0.00000
     26       8.1178      0.00000
     27      13.1844      0.00000
     28      13.1866      0.00000
     29      13.2692      0.00000
     30      15.0784      0.00000
     31      15.0873      0.00000
     32      15.0908      0.00000
     33      15.1140      0.00000
     34      15.1303      0.00000
     35      15.1871      0.00000
     36      16.3107      0.00000
     37      16.3297      0.00000
     38      16.3425      0.00000
     39      16.3731      0.00000
     40      16.4284      0.00000
     41      16.4944      0.00000
     42      16.7092      0.00000
     43      16.7193      0.00000
     44      16.8197      0.00000
     45      17.8838      0.00000
     46      17.8976      0.00000
     47      17.9240      0.00000
     48      17.9406      0.00000


--------------------------------------------------------------------------------------------------------


 soft charge-density along one line, spin component           1
         0         1         2         3         4         5         6         7         8         9
 total charge-density along one line
 
 pseudopotential strength for first ion, spin component:           1
 18.662   0.000   0.000   0.000   0.000   0.000   0.000   0.000
  0.000   0.006   0.000   0.000   0.000   0.000   0.000   0.000
  0.000   0.000   4.216   0.000   0.000  -0.004   0.000   0.000
  0.000   0.000   0.000   4.216   0.000   0.000  -0.004   0.000
  0.000   0.000   0.000   0.000   4.216   0.000   0.000  -0.004
  0.000   0.000  -0.004   0.000   0.000   0.005   0.000   0.000
  0.000   0.000   0.000  -0.004   0.000   0.000   0.005   0.000
  0.000   0.000   0.000   0.000  -0.004   0.000   0.000   0.005
 total augmentation occupancy for first ion, spin component:           1
  2.000   0.000   0.000   0.000   0.000   0.000   0.000   0.000
  0.000   0.000   0.000   0.000   0.000   0.000   0.000   0.000
  0.000   0.000   0.667   0.000   0.000   0.000   0.000   0.000
  0.000   0.000   0.000   0.667   0.000   0.000   0.000   0.000
  0.000   0.000   0.000   0.000   0.667   0.000   0.000   0.000
  0.000   0.000   0.000   0.000   0.000   0.000   0.000   0.000
  0.000   0.000   0.000   0.000   0.000   0.000   0.000   0.000
  0.000   0.000   0.000   0.000   0.000   0.000   0.000   0.000


----------------------------------------- Iteration    1(   4)  ---------------------------------------


     EDDAV:  cpu time    2.02: real time    2.02
       DOS:  cpu time    0.00: real time    0.00
    --------------------------------------------
      LOOP:  cpu time    2.03: real time    2.03

 eigenvalue-minimisations  :   192
 total energy-change (2. order) :-0.3538072E-03  (-0.3538072E-03)
 number of electron      32.0000000 magnetization 
 augmentation part       32.0000000 magnetization 

 Free energy of the ion-electron system (eV)
  ---------------------------------------------------
  alpha Z        PSCENC =        12.68944982
  Ewald energy   TEWEN  =      -907.56601795
  -1/2 Hartree   DENC   =       -45.63681692
  -exchange  EXHF       =         0.00000000
  -V(xc)+E(xc)   XCENC  =       -76.79670354
  PAW double counting   =       265.93453375     -123.69690146
  entropy T*S    EENTRO =         0.00000000
  eigenvalues    EBANDS =        14.08052646
  atomic energy  EATOM  =       826.37398168
  ---------------------------------------------------
  free energy    TOTEN  =       -34.61794816 eV

  energy without entropy =      -34.61794816  energy(sigma->0) =      -34.61794816


--------------------------------------------------------------------------------------------------------




 average (electrostatic) potential at core
  the test charge radii are     0.9892
  (the norm of the test charge is              1.0000)
       1 -84.3528       2 -84.3514       3 -84.3418       4 -84.3511       5 -84.3540
       6 -84.3527       7 -84.3540       8 -84.3473
 
 
 
 E-fermi :   5.2001     XC(G=0):  -9.5533     alpha+bet :-11.7379


 k-point   1 :       0.0000    0.0000    0.0000
  band No.  band energies     occupation 
      1      -6.6372      2.00000
      2      -2.6454      2.00000
      3      -2.6450      2.00000
      4      -2.6399      2.00000
      5      -2.6265      2.00000
      6      -2.6203      2.00000
      7      -2.6112      2.00000
      8       2.3693      2.00000
      9       2.3730      2.00000
     10       2.3773      2.00000
     11       2.3792      2.00000
     12       2.3809      2.00000
     13       2.3861      2.00000
     14       5.0621      2.00000
     15       5.0658      2.00000
     16       5.0720      2.00000
     17       6.1375      0.00000
     18       6.1469      0.00000
     19       6.1545      0.00000
     20       6.1574      0.00000
     21       6.1605      0.00000
     22       6.1622      0.00000
     23       7.8465      0.00000
     24       7.8500      0.00000
     25       7.8521      0.00000
     26       8.1178      0.00000
     27      13.1837      0.00000
     28      13.1837      0.00000
     29      13.2692      0.00000
     30      15.0709      0.00000
     31      15.0795      0.00000
     32      15.0837      0.00000
     33      15.0858      0.00000
     34      15.0926      0.00000
     35      15.0960      0.00000
     36      16.2913      0.00000
     37      16.2983      0.00000
     38      16.3080      0.00000
     39      16.3167      0.00000
     40      16.3208      0.00000
     41      16.3274      0.00000
     42      16.7010      0.00000
     43      16.7050      0.00000
     44      16.7072      0.00000
     45      17.8724      0.00000
     46      17.8791      0.00000
     47      17.8816      0.00000
     48      17.8919      0.00000


--------------------------------------------------------------------------------------------------------


 soft charge-density along one line, spin component           1
         0         1         2         3         4         5         6         7         8         9
 total charge-density along one line
 
 pseudopotential strength for first ion, spin component:           1
 18.662   0.000   0.000   0.000   0.000   0.000   0.000   0.000
  0.000   0.006   0.000   0.000   0.000   0.000   0.000   0.000
  0.000   0.000   4.216   0.000   0.000  -0.004   0.000   0.000
  0.000   0.000   0.000   4.216   0.000   0.000  -0.004   0.000
  0.000   0.000   0.000   0.000   4.216   0.000   0.000  -0.004
  0.000   0.000  -0.004   0.000   0.000   0.005   0.000   0.000
  0.000   0.000   0.000  -0.004   0.000   0.000   0.005   0.000
  0.000   0.000   0.000   0.000  -0.004   0.000   0.000   0.005
 total augmentation occupancy for first ion, spin component:           1
  2.000   0.000   0.000   0.000   0.000   0.000   0.000   0.000
  0.000   0.000   0.000   0.000   0.000   0.000   0.000   0.000
  0.000   0.000   0.667   0.000   0.000   0.000   0.000   0.000
  0.000   0.000   0.000   0.667   0.000   0.000   0.000   0.000
  0.000   0.000   0.000   0.000   0.667   0.000   0.000   0.000
  0.000   0.000   0.000   0.000   0.000   0.000   0.000   0.000
  0.000   0.000   0.000   0.000   0.000   0.000   0.000   0.000
  0.000   0.000   0.000   0.000   0.000   0.000   0.000   0.000


----------------------------------------- Iteration    1(   5)  ---------------------------------------


     EDDAV:  cpu time    0.39: real time    0.39
       DOS:  cpu time    0.00: real time    0.00
    CHARGE:  cpu time    0.02: real time    0.02
    MIXING:  cpu time    0.00: real time    0.00
    --------------------------------------------
      LOOP:  cpu time    0.42: real time    0.42

 eigenvalue-minimisations  :    96
 total energy-change (2. order) :-0.3037485E-08  (-0.3038503E-08)
 number of electron      31.9999999 magnetization 
 augmentation part       -1.8053371 magnetization 

 Broyden mixing:
  rms(total) = 0.79306E+00    rms(broyden)= 0.79301E+00
  rms(prec ) = 0.15229E+01
  weight for this iteration     100.00

 Free energy of the ion-electron system (eV)
  ---------------------------------------------------
  alpha Z        PSCENC =        12.68944982
  Ewald energy   TEWEN  =      -907.56601795
  -1/2 Hartree   DENC   =       -45.63681692
  -exchange  EXHF       =         0.00000000
  -V(xc)+E(xc)   XCENC  =       -76.79670354
  PAW double counting   =       265.93453375     -123.69690146
  entropy T*S    EENTRO =         0.00000000
  eigenvalues    EBANDS =        14.08052646
  atomic energy  EATOM  =       826.37398168
  ---------------------------------------------------
  free energy    TOTEN  =       -34.61794816 eV

  energy without entropy =      -34.61794816  energy(sigma->0) =      -34.61794816


--------------------------------------------------------------------------------------------------------




 average (electrostatic) potential at core
  the test charge radii are     0.9892
  (the norm of the test charge is              1.0000)
       1 -84.3528       2 -84.3514       3 -84.3418       4 -84.3511       5 -84.3540
       6 -84.3527       7 -84.3540       8 -84.3473
 
 
 
 E-fermi :   5.1979     XC(G=0):  -9.5533     alpha+bet :-11.7379


 k-point   1 :       0.0000    0.0000    0.0000
  band No.  band energies     occupation 
      1      -6.6372      2.00000
      2      -2.6454      2.00000
      3      -2.6450      2.00000
      4      -2.6399      2.00000
      5      -2.6265      2.00000
      6      -2.6203      2.00000
      7      -2.6112      2.00000
      8       2.3693      2.00000
      9       2.3730      2.00000
     10       2.3773      2.00000
     11       2.3792      2.00000
     12       2.3809      2.00000
     13       2.3861      2.00000
     14       5.0621      2.00000
     15       5.0658      2.00000
     16       5.0720      2.00000
     17       6.1375      0.00000
     18       6.1469      0.00000
     19       6.1545      0.00000
     20       6.1574      0.00000
     21       6.1605      0.00000
     22       6.1622      0.00000
     23       7.8465      0.00000
     24       7.8500      0.00000
     25       7.8521      0.00000
     26       8.1178      0.00000
     27      13.1837      0.00000
     28      13.1837      0.00000
     29      13.2692      0.00000
     30      15.0708      0.00000
     31      15.0794      0.00000
     32      15.0837      0.00000
     33      15.0858      0.00000
     34      15.0926      0.00000
     35      15.0959      0.00000
     36      16.2909      0.00000
     37      16.2981      0.00000
     38      16.3075      0.00000
     39      16.3166      0.00000
     40      16.3204      0.00000
     41      16.3271      0.00000
     42      16.7010      0.00000
     43      16.7048      0.00000
     44      16.7071      0.00000
     45      17.8688      0.00000
     46      17.8704      0.00000
     47      17.8732      0.00000
     48      17.8872      0.00000


--------------------------------------------------------------------------------------------------------


 soft charge-density along one line, spin component           1
         0         1         2         3         4         5         6         7         8         9
 total charge-density along one line
 
 pseudopotential strength for first ion, spin component:           1
 18.662   0.000   0.000   0.000   0.000   0.000   0.000   0.000
  0.000   0.006   0.000   0.000   0.000   0.000   0.000   0.000
  0.000   0.000   4.216   0.000   0.000  -0.004   0.000   0.000
  0.000   0.000   0.000   4.216   0.000   0.000  -0.004   0.000
  0.000   0.000   0.000   0.000   4.216   0.000   0.000  -0.004
  0.000   0.000  -0.004   0.000   0.000   0.005   0.000   0.000
  0.000   0.000   0.000  -0.004   0.000   0.000   0.005   0.000
  0.000   0.000   0.000   0.000  -0.004   0.000   0.000   0.005
 total augmentation occupancy for first ion, spin component:           1
  1.380  -1.052  -0.001   0.000  -0.001   0.001   0.001   0.000
 -1.052   0.920   0.001   0.000   0.000  -0.002   0.000   0.000
 -0.001   0.001   1.163   0.000   0.000  -0.758   0.000   0.001
  0.000   0.000   0.000   1.168  -0.001   0.001  -0.761   0.001
 -0.001   0.000   0.000  -0.001   1.163   0.000   0.001  -0.758
  0.001  -0.002  -0.758   0.001   0.000   0.569  -0.001  -0.001
  0.001   0.000   0.000  -0.761   0.001  -0.001   0.572  -0.001
  0.000   0.000   0.001   0.001  -0.758  -0.001  -0.001   0.569


----------------------------------------- Iteration    1(   6)  ---------------------------------------


    POTLOK:  cpu time    0.02: real time    0.02
    SETDIJ:  cpu time    0.02: real time    0.02
    EDDIAG:  cpu time    0.03: real time    0.03
  RMM-DIIS:  cpu time    0.03: real time    0.03
    ORTHCH:  cpu time    0.01: real time    0.01
       DOS:  cpu time    0.00: real time    0.00
    CHARGE:  cpu time    0.02: real time    0.02
    MIXING:  cpu time    0.00: real time    0.00
    --------------------------------------------
      LOOP:  cpu time    0.14: real time    0.14

 eigenvalue-minimisations  :    96
 total energy-change (2. order) : 0.1001723E+01  (-0.3197406E-01)
 number of electron      31.9999999 magnetization 
 augmentation part       -1.7684129 magnetization 

 Broyden mixing:
  rms(total) = 0.47399E+00    rms(broyden)= 0.47399E+00
  rms(prec ) = 0.91066E+00
  weight for this iteration     100.00

 eigenvalues of (default mixing * dielectric matrix)
  average eigenvalue GAMMA=   2.4573
  2.4573

 Free energy of the ion-electron system (eV)
  ---------------------------------------------------
  alpha Z        PSCENC =        12.68944982
  Ewald energy   TEWEN  =      -907.56601795
  -1/2 Hartree   DENC   =       -54.68337551
  -exchange  EXHF       =         0.00000000
  -V(xc)+E(xc)   XCENC  =       -75.44940121
  PAW double counting   =       286.06074572     -144.35905571
  entropy T*S    EENTRO =         0.00000000
  eigenvalues    EBANDS =        23.31744810
  atomic energy  EATOM  =       826.37398168
  ---------------------------------------------------
  free energy    TOTEN  =       -33.61622505 eV

  energy without entropy =      -33.61622505  energy(sigma->0) =      -33.61622505


--------------------------------------------------------------------------------------------------------




 average (electrostatic) potential at core
  the test charge radii are     0.9892
  (the norm of the test charge is              1.0000)
       1 -83.8340       2 -83.8332       3 -83.8284       4 -83.8331       5 -83.8345
       6 -83.8338       7 -83.8345       8 -83.8312
 
 
 
 E-fermi :   5.5500     XC(G=0):  -9.4504     alpha+bet :-11.7379


 k-point   1 :       0.0000    0.0000    0.0000
  band No.  band energies     occupation 
      1      -6.3788      2.00000
      2      -2.3446      2.00000
      3      -2.3441      2.00000
      4      -2.3397      2.00000
      5      -2.3281      2.00000
      6      -2.3231      2.00000
      7      -2.3153      2.00000
      8       2.6313      2.00000
      9       2.6347      2.00000
     10       2.6384      2.00000
     11       2.6401      2.00000
     12       2.6417      2.00000
     13       2.6460      2.00000
     14       5.3956      2.00000
     15       5.3992      2.00000
     16       5.4053      2.00000
     17       6.2537      0.00000
     18       6.2621      0.00000
     19       6.2688      0.00000
     20       6.2713      0.00000
     21       6.2742      0.00000
     22       6.2757      0.00000
     23       8.0539      0.00000
     24       8.0574      0.00000
     25       8.0595      0.00000
     26       8.4862      0.00000
     27      13.3049      0.00000
     28      13.3568      0.00000
     29      13.3568      0.00000
     30      15.3683      0.00000
     31      15.3761      0.00000
     32      15.3797      0.00000
     33      15.3817      0.00000
     34      15.3880      0.00000
     35      15.3914      0.00000
     36      16.5284      0.00000
     37      16.5350      0.00000
     38      16.5436      0.00000
     39      16.5518      0.00000
     40      16.5552      0.00000
     41      16.5614      0.00000
     42      16.7456      0.00000
     43      16.7495      0.00000
     44      16.7518      0.00000
     45      18.1581      0.00000
     46      18.1585      0.00000
     47      18.1619      0.00000
     48      18.1765      0.00000


--------------------------------------------------------------------------------------------------------


 soft charge-density along one line, spin component           1
         0         1         2         3         4         5         6         7         8         9
 total charge-density along one line
 
 pseudopotential strength for first ion, spin component:           1
 18.635  -0.001   0.000   0.000   0.000   0.000   0.000   0.000
 -0.001   0.006   0.000   0.000   0.000   0.000   0.000   0.000
  0.000   0.000   4.221   0.000   0.000  -0.004   0.000   0.000
  0.000   0.000   0.000   4.221   0.000   0.000  -0.004   0.000
  0.000   0.000   0.000   0.000   4.221   0.000   0.000  -0.004
  0.000   0.000  -0.004   0.000   0.000   0.005   0.000   0.000
  0.000   0.000   0.000  -0.004   0.000   0.000   0.005   0.000
  0.000   0.000   0.000   0.000  -0.004   0.000   0.000   0.005
 total augmentation occupancy for first ion, spin component:           1
  1.351  -1.091   0.000   0.000  -0.001   0.001   0.001   0.000
 -1.091   0.999   0.001   0.000   0.000  -0.002   0.000   0.000
  0.000   0.001   1.145   0.000   0.000  -0.781   0.000   0.000
  0.000   0.000   0.000   1.150  -0.001   0.001  -0.784   0.001
 -0.001   0.000   0.000  -0.001   1.145   0.000   0.001  -0.781
  0.001  -0.002  -0.781   0.001   0.000   0.608  -0.001   0.000
  0.001   0.000   0.000  -0.784   0.001  -0.001   0.610  -0.001
  0.000   0.000   0.000   0.001  -0.781   0.000  -0.001   0.608


----------------------------------------- Iteration    1(   7)  ---------------------------------------


    POTLOK:  cpu time    0.02: real time    0.02
    SETDIJ:  cpu time    0.02: real time    0.02
    EDDIAG:  cpu time    0.02: real time    0.02
  RMM-DIIS:  cpu time    0.02: real time    0.02
    ORTHCH:  cpu time    0.01: real time    0.01
       DOS:  cpu time    0.00: real time    0.00
    CHARGE:  cpu time    0.02: real time    0.02
    MIXING:  cpu time    0.00: real time    0.00
    --------------------------------------------
      LOOP:  cpu time    0.12: real time    0.12

 eigenvalue-minimisations  :    96
 total energy-change (2. order) : 0.4246660E+00  (-0.7386803E-01)
 number of electron      31.9999999 magnetization 
 augmentation part       -1.7214615 magnetization 

 Broyden mixing:
  rms(total) = 0.46253E-01    rms(broyden)= 0.46243E-01
  rms(prec ) = 0.78468E-01
  weight for this iteration     100.00

 eigenvalues of (default mixing * dielectric matrix)
  average eigenvalue GAMMA=   2.5298
  2.5298  2.5298

 Free energy of the ion-electron system (eV)
  ---------------------------------------------------
  alpha Z        PSCENC =        12.68944982
  Ewald energy   TEWEN  =      -907.56601795
  -1/2 Hartree   DENC   =       -70.51408207
  -exchange  EXHF       =         0.00000000
  -V(xc)+E(xc)   XCENC  =       -73.00931051
  PAW double counting   =       313.72460330     -172.73661036
  entropy T*S    EENTRO =         0.00000000
  eigenvalues    EBANDS =        37.84642703
  atomic energy  EATOM  =       826.37398168
  ---------------------------------------------------
  free energy    TOTEN  =       -33.19155906 eV

  energy without entropy =      -33.19155906  energy(sigma->0) =      -33.19155906


--------------------------------------------------------------------------------------------------------




 average (electrostatic) potential at core
  the test charge radii are     0.9892
  (the norm of the test charge is              1.0000)
       1 -83.1459       2 -83.1455       3 -83.1430       4 -83.1459       5 -83.1465
       6 -83.1464       7 -83.1464       8 -83.1450
 
 
 
 E-fermi :   6.0979     XC(G=0):  -9.2018     alpha+bet :-11.7379


 k-point   1 :       0.0000    0.0000    0.0000
  band No.  band energies     occupation 
      1      -5.9621      2.00000
      2      -1.8766      2.00000
      3      -1.8758      2.00000
      4      -1.8719      2.00000
      5      -1.8621      2.00000
      6      -1.8582      2.00000
      7      -1.8515      2.00000
      8       3.0446      2.00000
      9       3.0479      2.00000
     10       3.0510      2.00000
     11       3.0525      2.00000
     12       3.0543      2.00000
     13       3.0573      2.00000
     14       5.9203      2.00000
     15       5.9238      2.00000
     16       5.9297      2.00000
     17       6.5141      0.00000
     18       6.5212      0.00000
     19       6.5270      0.00000
     20       6.5291      0.00000
     21       6.5315      0.00000
     22       6.5329      0.00000
     23       8.3789      0.00000
     24       8.3825      0.00000
     25       8.3847      0.00000
     26       9.0452      0.00000
     27      13.6012      0.00000
     28      13.6204      0.00000
     29      13.6204      0.00000
     30      15.8195      0.00000
     31      15.8266      0.00000
     32      15.8297      0.00000
     33      15.8316      0.00000
     34      15.8372      0.00000
     35      15.8404      0.00000
     36      16.8994      0.00000
     37      16.9033      0.00000
     38      16.9058      0.00000
     39      16.9500      0.00000
     40      16.9557      0.00000
     41      16.9635      0.00000
     42      16.9703      0.00000
     43      16.9739      0.00000
     44      16.9797      0.00000
     45      18.6548      0.00000
     46      18.6598      0.00000
     47      18.6628      0.00000
     48      18.6774      0.00000


--------------------------------------------------------------------------------------------------------


 soft charge-density along one line, spin component           1
         0         1         2         3         4         5         6         7         8         9
 total charge-density along one line
 
 pseudopotential strength for first ion, spin component:           1
 18.596  -0.001   0.000   0.000   0.000   0.000   0.000   0.000
 -0.001   0.006   0.000   0.000   0.000   0.000   0.000   0.000
  0.000   0.000   4.227   0.000   0.000  -0.005   0.000   0.000
  0.000   0.000   0.000   4.227   0.000   0.000  -0.005   0.000
  0.000   0.000   0.000   0.000   4.227   0.000   0.000  -0.005
  0.000   0.000  -0.005   0.000   0.000   0.005   0.000   0.000
  0.000   0.000   0.000  -0.005   0.000   0.000   0.005   0.000
  0.000   0.000   0.000   0.000  -0.005   0.000   0.000   0.005
 total augmentation occupancy for first ion, spin component:           1
  1.315  -1.113   0.000   0.001  -0.001   0.002   0.000   0.000
 -1.113   1.059   0.001   0.001   0.000  -0.002  -0.001   0.000
  0.000   0.001   1.120   0.000   0.000  -0.804   0.000   0.000
  0.001   0.001   0.000   1.125  -0.001   0.001  -0.807   0.001
 -0.001   0.000   0.000  -0.001   1.121   0.000   0.001  -0.804
  0.002  -0.002  -0.804   0.001   0.000   0.652  -0.001   0.000
  0.000  -0.001   0.000  -0.807   0.001  -0.001   0.654  -0.001
  0.000   0.000   0.000   0.001  -0.804   0.000  -0.001   0.652


----------------------------------------- Iteration    1(   8)  ---------------------------------------


    POTLOK:  cpu time    0.02: real time    0.02
    SETDIJ:  cpu time    0.02: real time    0.02
    EDDIAG:  cpu time    0.02: real time    0.02
  RMM-DIIS:  cpu time    0.03: real time    0.03
    ORTHCH:  cpu time    0.01: real time    0.01
       DOS:  cpu time    0.00: real time    0.00
    CHARGE:  cpu time    0.02: real time    0.02
    MIXING:  cpu time    0.00: real time    0.00
    --------------------------------------------
      LOOP:  cpu time    0.12: real time    0.13

 eigenvalue-minimisations  :    96
 total energy-change (2. order) :-0.3197231E-01  (-0.2158951E-02)
 number of electron      31.9999999 magnetization 
 augmentation part       -1.7275453 magnetization 

 Broyden mixing:
  rms(total) = 0.75085E-02    rms(broyden)= 0.75080E-02
  rms(prec ) = 0.17993E-01
  weight for this iteration     100.00

 eigenvalues of (default mixing * dielectric matrix)
  average eigenvalue GAMMA=   2.1206
  1.2729  2.8641  2.2249

 Free energy of the ion-electron system (eV)
  ---------------------------------------------------
  alpha Z        PSCENC =        12.68944982
  Ewald energy   TEWEN  =      -907.56601795
  -1/2 Hartree   DENC   =       -70.39935473
  -exchange  EXHF       =         0.00000000
  -V(xc)+E(xc)   XCENC  =       -72.96573413
  PAW double counting   =       307.36736081     -166.19470051
  entropy T*S    EENTRO =         0.00000000
  eigenvalues    EBANDS =        37.47148362
  atomic energy  EATOM  =       826.37398168
  ---------------------------------------------------
  free energy    TOTEN  =       -33.22353138 eV

  energy without entropy =      -33.22353138  energy(sigma->0) =      -33.22353138


--------------------------------------------------------------------------------------------------------




 average (electrostatic) potential at core
  the test charge radii are     0.9892
  (the norm of the test charge is              1.0000)
       1 -83.2500       2 -83.2488       3 -83.2417       4 -83.2489       5 -83.2509
       6 -83.2501       7 -83.2508       8 -83.2461
 
 
 
 E-fermi :   6.0366     XC(G=0):  -9.1505     alpha+bet :-11.7379


 k-point   1 :       0.0000    0.0000    0.0000
  band No.  band energies     occupation 
      1      -5.9632      2.00000
      2      -1.8891      2.00000
      3      -1.8885      2.00000
      4      -1.8842      2.00000
      5      -1.8734      2.00000
      6      -1.8688      2.00000
      7      -1.8613      2.00000
      8       3.0325      2.00000
      9       3.0360      2.00000
     10       3.0395      2.00000
     11       3.0412      2.00000
     12       3.0431      2.00000
     13       3.0464      2.00000
     14       5.9042      2.00000
     15       5.9077      2.00000
     16       5.9137      2.00000
     17       6.5644      0.00000
     18       6.5718      0.00000
     19       6.5779      0.00000
     20       6.5800      0.00000
     21       6.5827      0.00000
     22       6.5842      0.00000
     23       8.3683      0.00000
     24       8.3718      0.00000
     25       8.3740      0.00000
     26       9.0381      0.00000
     27      13.6064      0.00000
     28      13.6064      0.00000
     29      13.7782      0.00000
     30      15.8042      0.00000
     31      15.8118      0.00000
     32      15.8153      0.00000
     33      15.8173      0.00000
     34      15.8229      0.00000
     35      15.8258      0.00000
     36      16.9359      0.00000
     37      16.9395      0.00000
     38      16.9415      0.00000
     39      16.9568      0.00000
     40      16.9621      0.00000
     41      16.9702      0.00000
     42      16.9770      0.00000
     43      16.9810      0.00000
     44      16.9873      0.00000
     45      18.6912      0.00000
     46      18.6983      0.00000
     47      18.7011      0.00000
     48      18.7151      0.00000


--------------------------------------------------------------------------------------------------------


 soft charge-density along one line, spin component           1
         0         1         2         3         4         5         6         7         8         9
 total charge-density along one line
 
 pseudopotential strength for first ion, spin component:           1
 18.599  -0.001   0.000   0.000   0.000   0.000   0.000   0.000
 -0.001   0.006   0.000   0.000   0.000   0.000   0.000   0.000
  0.000   0.000   4.224   0.000   0.000  -0.005   0.000   0.000
  0.000   0.000   0.000   4.224   0.000   0.000  -0.005   0.000
  0.000   0.000   0.000   0.000   4.224   0.000   0.000  -0.005
  0.000   0.000  -0.005   0.000   0.000   0.005   0.000   0.000
  0.000   0.000   0.000  -0.005   0.000   0.000   0.005   0.000
  0.000   0.000   0.000   0.000  -0.005   0.000   0.000   0.005
 total augmentation occupancy for first ion, spin component:           1
  1.320  -1.093  -0.001   0.000   0.000   0.001   0.000   0.001
 -1.093   1.022   0.001   0.001   0.000  -0.002   0.000   0.000
 -0.001   0.001   1.122   0.000   0.000  -0.800   0.000   0.000
  0.000   0.001   0.000   1.126  -0.001   0.001  -0.803   0.001
  0.000   0.000   0.000  -0.001   1.122   0.000   0.001  -0.800
  0.001  -0.002  -0.800   0.001   0.000   0.647  -0.001  -0.001
  0.000   0.000   0.000  -0.803   0.001  -0.001   0.649  -0.001
  0.001   0.000   0.000   0.001  -0.800  -0.001  -0.001   0.647


----------------------------------------- Iteration    1(   9)  ---------------------------------------


    POTLOK:  cpu time    0.02: real time    0.02
    SETDIJ:  cpu time    0.02: real time    0.02
    EDDIAG:  cpu time    0.02: real time    0.02
  RMM-DIIS:  cpu time    0.05: real time    0.06
    ORTHCH:  cpu time    0.01: real time    0.01
       DOS:  cpu time    0.00: real time    0.00
    CHARGE:  cpu time    0.02: real time    0.02
    MIXING:  cpu time    0.01: real time    0.01
    --------------------------------------------
      LOOP:  cpu time    0.16: real time    0.16

 eigenvalue-minimisations  :   105
 total energy-change (2. order) :-0.1138818E-02  (-0.1266722E-03)
 number of electron      31.9999999 magnetization 
 augmentation part       -1.7274647 magnetization 

 Broyden mixing:
  rms(total) = 0.41784E-02    rms(broyden)= 0.41783E-02
  rms(prec ) = 0.68488E-02
  weight for this iteration     100.00

 eigenvalues of (default mixing * dielectric matrix)
  average eigenvalue GAMMA=   2.2683
  0.9824  3.1571  2.6382  2.2956

 Free energy of the ion-electron system (eV)
  ---------------------------------------------------
  alpha Z        PSCENC =        12.68944982
  Ewald energy   TEWEN  =      -907.56601795
  -1/2 Hartree   DENC   =       -70.79604555
  -exchange  EXHF       =         0.00000000
  -V(xc)+E(xc)   XCENC  =       -72.90648591
  PAW double counting   =       307.71729783     -166.55501781
  entropy T*S    EENTRO =         0.00000000
  eigenvalues    EBANDS =        37.81816769
  atomic energy  EATOM  =       826.37398168
  ---------------------------------------------------
  free energy    TOTEN  =       -33.22467020 eV

  energy without entropy =      -33.22467020  energy(sigma->0) =      -33.22467020


--------------------------------------------------------------------------------------------------------




 average (electrostatic) potential at core
  the test charge radii are     0.9892
  (the norm of the test charge is              1.0000)
       1 -83.2355       2 -83.2346       3 -83.2290       4 -83.2345       5 -83.2361
       6 -83.2353       7 -83.2361       8 -83.2322
 
 
 
 E-fermi :   6.0514     XC(G=0):  -9.1363     alpha+bet :-11.7379


 k-point   1 :       0.0000    0.0000    0.0000
  band No.  band energies     occupation 
      1      -5.9520      2.00000
      2      -1.8776      2.00000
      3      -1.8769      2.00000
      4      -1.8729      2.00000
      5      -1.8624      2.00000
      6      -1.8580      2.00000
      7      -1.8508      2.00000
      8       3.0426      2.00000
      9       3.0460      2.00000
     10       3.0493      2.00000
     11       3.0509      2.00000
     12       3.0528      2.00000
     13       3.0560      2.00000
     14       5.9163      2.00000
     15       5.9198      2.00000
     16       5.9258      2.00000
     17       6.5783      0.00000
     18       6.5858      0.00000
     19       6.5919      0.00000
     20       6.5941      0.00000
     21       6.5969      0.00000
     22       6.5983      0.00000
     23       8.3759      0.00000
     24       8.3795      0.00000
     25       8.3817      0.00000
     26       9.0526      0.00000
     27      13.6116      0.00000
     28      13.6116      0.00000
     29      13.8104      0.00000
     30      15.8150      0.00000
     31      15.8223      0.00000
     32      15.8257      0.00000
     33      15.8276      0.00000
     34      15.8333      0.00000
     35      15.8363      0.00000
     36      16.9460      0.00000
     37      16.9496      0.00000
     38      16.9517      0.00000
     39      16.9689      0.00000
     40      16.9743      0.00000
     41      16.9823      0.00000
     42      16.9891      0.00000
     43      16.9930      0.00000
     44      16.9991      0.00000
     45      18.7089      0.00000
     46      18.7165      0.00000
     47      18.7194      0.00000
     48      18.7336      0.00000


--------------------------------------------------------------------------------------------------------


 soft charge-density along one line, spin component           1
         0         1         2         3         4         5         6         7         8         9
 total charge-density along one line
 
 pseudopotential strength for first ion, spin component:           1
 18.598  -0.001   0.000   0.000   0.000   0.000   0.000   0.000
 -0.001   0.006   0.000   0.000   0.000   0.000   0.000   0.000
  0.000   0.000   4.224   0.000   0.000  -0.005   0.000   0.000
  0.000   0.000   0.000   4.224   0.000   0.000  -0.005   0.000
  0.000   0.000   0.000   0.000   4.224   0.000   0.000  -0.005
  0.000   0.000  -0.005   0.000   0.000   0.005   0.000   0.000
  0.000   0.000   0.000  -0.005   0.000   0.000   0.005   0.000
  0.000   0.000   0.000   0.000  -0.005   0.000   0.000   0.005
 total augmentation occupancy for first ion, spin component:           1
  1.320  -1.088  -0.001   0.000  -0.001   0.001   0.000   0.001
 -1.088   1.013   0.001   0.001   0.000  -0.002   0.000   0.000
 -0.001   0.001   1.122   0.000   0.000  -0.800   0.000   0.000
  0.000   0.001   0.000   1.126  -0.001   0.001  -0.803   0.001
 -0.001   0.000   0.000  -0.001   1.122   0.000   0.001  -0.800
  0.001  -0.002  -0.800   0.001   0.000   0.647  -0.001  -0.001
  0.000   0.000   0.000  -0.803   0.001  -0.001   0.649  -0.001
  0.001   0.000   0.000   0.001  -0.800  -0.001  -0.001   0.647


----------------------------------------- Iteration    1(  10)  ---------------------------------------


    POTLOK:  cpu time    0.02: real time    0.02
    SETDIJ:  cpu time    0.02: real time    0.02
    EDDIAG:  cpu time    0.02: real time    0.02
  RMM-DIIS:  cpu time    0.03: real time    0.03
    ORTHCH:  cpu time    0.01: real time    0.01
       DOS:  cpu time    0.00: real time    0.00
    CHARGE:  cpu time    0.02: real time    0.02
    MIXING:  cpu time    0.00: real time    0.00
    --------------------------------------------
      LOOP:  cpu time    0.13: real time    0.13

 eigenvalue-minimisations  :   104
 total energy-change (2. order) :-0.1853013E-03  (-0.2185593E-04)
 number of electron      31.9999999 magnetization 
 augmentation part       -1.7273646 magnetization 

 Broyden mixing:
  rms(total) = 0.40417E-03    rms(broyden)= 0.40371E-03
  rms(prec ) = 0.83162E-03
  weight for this iteration     100.00

 eigenvalues of (default mixing * dielectric matrix)
  average eigenvalue GAMMA=   2.0382
  3.0868  2.6217  2.1596  0.9789  1.3442

 Free energy of the ion-electron system (eV)
  ---------------------------------------------------
  alpha Z        PSCENC =        12.68944982
  Ewald energy   TEWEN  =      -907.56601795
  -1/2 Hartree   DENC   =       -70.84428761
  -exchange  EXHF       =         0.00000000
  -V(xc)+E(xc)   XCENC  =       -72.90939821
  PAW double counting   =       307.79503961     -166.63842059
  entropy T*S    EENTRO =         0.00000000
  eigenvalues    EBANDS =        37.87479775
  atomic energy  EATOM  =       826.37398168
  ---------------------------------------------------
  free energy    TOTEN  =       -33.22485550 eV

  energy without entropy =      -33.22485550  energy(sigma->0) =      -33.22485550


--------------------------------------------------------------------------------------------------------




 average (electrostatic) potential at core
  the test charge radii are     0.9892
  (the norm of the test charge is              1.0000)
       1 -83.2273       2 -83.2266       3 -83.2223       4 -83.2264       5 -83.2277
       6 -83.2271       7 -83.2277       8 -83.2248
 
 
 
 E-fermi :   6.0558     XC(G=0):  -9.1310     alpha+bet :-11.7379


 k-point   1 :       0.0000    0.0000    0.0000
  band No.  band energies     occupation 
      1      -5.9497      2.00000
      2      -1.8755      2.00000
      3      -1.8748      2.00000
      4      -1.8708      2.00000
      5      -1.8605      2.00000
      6      -1.8563      2.00000
      7      -1.8493      2.00000
      8       3.0443      2.00000
      9       3.0476      2.00000
     10       3.0509      2.00000
     11       3.0524      2.00000
     12       3.0542      2.00000
     13       3.0574      2.00000
     14       5.9183      2.00000
     15       5.9217      2.00000
     16       5.9277      2.00000
     17       6.5832      0.00000
     18       6.5908      0.00000
     19       6.5969      0.00000
     20       6.5991      0.00000
     21       6.6019      0.00000
     22       6.6033      0.00000
     23       8.3768      0.00000
     24       8.3803      0.00000
     25       8.3825      0.00000
     26       9.0560      0.00000
     27      13.6116      0.00000
     28      13.6117      0.00000
     29      13.8255      0.00000
     30      15.8168      0.00000
     31      15.8240      0.00000
     32      15.8273      0.00000
     33      15.8292      0.00000
     34      15.8349      0.00000
     35      15.8381      0.00000
     36      16.9497      0.00000
     37      16.9533      0.00000
     38      16.9554      0.00000
     39      16.9716      0.00000
     40      16.9769      0.00000
     41      16.9848      0.00000
     42      16.9915      0.00000
     43      16.9955      0.00000
     44      17.0015      0.00000
     45      18.7161      0.00000
     46      18.7229      0.00000
     47      18.7257      0.00000
     48      18.7402      0.00000


--------------------------------------------------------------------------------------------------------


 soft charge-density along one line, spin component           1
         0         1         2         3         4         5         6         7         8         9
 total charge-density along one line
 
 pseudopotential strength for first ion, spin component:           1
 18.597  -0.001   0.000   0.000   0.000   0.000   0.000   0.000
 -0.001   0.006   0.000   0.000   0.000   0.000   0.000   0.000
  0.000   0.000   4.224   0.000   0.000  -0.005   0.000   0.000
  0.000   0.000   0.000   4.224   0.000   0.000  -0.005   0.000
  0.000   0.000   0.000   0.000   4.224   0.000   0.000  -0.005
  0.000   0.000  -0.005   0.000   0.000   0.005   0.000   0.000
  0.000   0.000   0.000  -0.005   0.000   0.000   0.005   0.000
  0.000   0.000   0.000   0.000  -0.005   0.000   0.000   0.005
 total augmentation occupancy for first ion, spin component:           1
  1.320  -1.087  -0.001   0.000  -0.001   0.001   0.000   0.001
 -1.087   1.013   0.001   0.001   0.000  -0.002   0.000   0.000
 -0.001   0.001   1.121   0.000   0.000  -0.800   0.000   0.000
  0.000   0.001   0.000   1.125  -0.001   0.001  -0.804   0.001
 -0.001   0.000   0.000  -0.001   1.121   0.000   0.001  -0.800
  0.001  -0.002  -0.800   0.001   0.000   0.647  -0.001  -0.001
  0.000   0.000   0.000  -0.804   0.001  -0.001   0.650  -0.001
  0.001   0.000   0.000   0.001  -0.800  -0.001  -0.001   0.647


----------------------------------------- Iteration    1(  11)  ---------------------------------------


    POTLOK:  cpu time    0.02: real time    0.02
    SETDIJ:  cpu time    0.02: real time    0.02
    EDDIAG:  cpu time    0.02: real time    0.02
  RMM-DIIS:  cpu time    0.04: real time    0.04
    ORTHCH:  cpu time    0.01: real time    0.01
       DOS:  cpu time    0.00: real time    0.00
    CHARGE:  cpu time    0.02: real time    0.02
    MIXING:  cpu time    0.00: real time    0.00
    --------------------------------------------
      LOOP:  cpu time    0.14: real time    0.14

 eigenvalue-minimisations  :   115
 total energy-change (2. order) : 0.3940069E-05  (-0.2421677E-06)
 number of electron      31.9999999 magnetization 
 augmentation part       -1.7274462 magnetization 

 Broyden mixing:
  rms(total) = 0.16144E-03    rms(broyden)= 0.16137E-03
  rms(prec ) = 0.31981E-03
  weight for this iteration     100.00

 eigenvalues of (default mixing * dielectric matrix)
  average eigenvalue GAMMA=   1.9560
  3.2078  2.7006  2.1814  1.6730  0.9865  0.9865

 Free energy of the ion-electron system (eV)
  ---------------------------------------------------
  alpha Z        PSCENC =        12.68944982
  Ewald energy   TEWEN  =      -907.56601795
  -1/2 Hartree   DENC   =       -70.82810010
  -exchange  EXHF       =         0.00000000
  -V(xc)+E(xc)   XCENC  =       -72.91093183
  PAW double counting   =       307.73298082     -166.57410156
  entropy T*S    EENTRO =         0.00000000
  eigenvalues    EBANDS =        37.85788756
  atomic energy  EATOM  =       826.37398168
  ---------------------------------------------------
  free energy    TOTEN  =       -33.22485156 eV

  energy without entropy =      -33.22485156  energy(sigma->0) =      -33.22485156


--------------------------------------------------------------------------------------------------------




 average (electrostatic) potential at core
  the test charge radii are     0.9892
  (the norm of the test charge is              1.0000)
       1 -83.2290       2 -83.2282       3 -83.2231       4 -83.2281       5 -83.2296
       6 -83.2289       7 -83.2296       8 -83.2261
 
 
 
 E-fermi :   6.0556     XC(G=0):  -9.1314     alpha+bet :-11.7379


 k-point   1 :       0.0000    0.0000    0.0000
  band No.  band energies     occupation 
      1      -5.9502      2.00000
      2      -1.8762      2.00000
      3      -1.8755      2.00000
      4      -1.8715      2.00000
      5      -1.8610      2.00000
      6      -1.8567      2.00000
      7      -1.8496      2.00000
      8       3.0437      2.00000
      9       3.0471      2.00000
     10       3.0504      2.00000
     11       3.0519      2.00000
     12       3.0538      2.00000
     13       3.0570      2.00000
     14       5.9177      2.00000
     15       5.9211      2.00000
     16       5.9271      2.00000
     17       6.5829      0.00000
     18       6.5904      0.00000
     19       6.5965      0.00000
     20       6.5988      0.00000
     21       6.6015      0.00000
     22       6.6029      0.00000
     23       8.3764      0.00000
     24       8.3800      0.00000
     25       8.3821      0.00000
     26       9.0553      0.00000
     27      13.6114      0.00000
     28      13.6114      0.00000
     29      13.8248      0.00000
     30      15.8161      0.00000
     31      15.8235      0.00000
     32      15.8268      0.00000
     33      15.8287      0.00000
     34      15.8344      0.00000
     35      15.8375      0.00000
     36      16.9495      0.00000
     37      16.9531      0.00000
     38      16.9551      0.00000
     39      16.9711      0.00000
     40      16.9764      0.00000
     41      16.9843      0.00000
     42      16.9911      0.00000
     43      16.9950      0.00000
     44      17.0011      0.00000
     45      18.7178      0.00000
     46      18.7233      0.00000
     47      18.7257      0.00000
     48      18.7404      0.00000


--------------------------------------------------------------------------------------------------------


 soft charge-density along one line, spin component           1
         0         1         2         3         4         5         6         7         8         9
 total charge-density along one line
 
 pseudopotential strength for first ion, spin component:           1
 18.597  -0.001   0.000   0.000   0.000   0.000   0.000   0.000
 -0.001   0.006   0.000   0.000   0.000   0.000   0.000   0.000
  0.000   0.000   4.224   0.000   0.000  -0.005   0.000   0.000
  0.000   0.000   0.000   4.224   0.000   0.000  -0.005   0.000
  0.000   0.000   0.000   0.000   4.224   0.000   0.000  -0.005
  0.000   0.000  -0.005   0.000   0.000   0.005   0.000   0.000
  0.000   0.000   0.000  -0.005   0.000   0.000   0.005   0.000
  0.000   0.000   0.000   0.000  -0.005   0.000   0.000   0.005
 total augmentation occupancy for first ion, spin component:           1
  1.320  -1.087  -0.001   0.000  -0.001   0.001   0.000   0.001
 -1.087   1.013   0.001   0.001   0.000  -0.002   0.000   0.000
 -0.001   0.001   1.121   0.000   0.000  -0.800   0.000   0.000
  0.000   0.001   0.000   1.125  -0.001   0.001  -0.804   0.001
 -0.001   0.000   0.000  -0.001   1.121   0.000   0.001  -0.800
  0.001  -0.002  -0.800   0.001   0.000   0.648  -0.001  -0.001
  0.000   0.000   0.000  -0.804   0.001  -0.001   0.650  -0.001
  0.001   0.000   0.000   0.001  -0.800  -0.001  -0.001   0.648


----------------------------------------- Iteration    1(  12)  ---------------------------------------


    POTLOK:  cpu time    0.02: real time    0.02
    SETDIJ:  cpu time    0.02: real time    0.02
    EDDIAG:  cpu time    0.02: real time    0.02
  RMM-DIIS:  cpu time    0.05: real time    0.05
    ORTHCH:  cpu time    0.01: real time    0.01
       DOS:  cpu time    0.00: real time    0.00
    CHARGE:  cpu time    0.02: real time    0.02
    MIXING:  cpu time    0.00: real time    0.00
    --------------------------------------------
      LOOP:  cpu time    0.15: real time    0.15

 eigenvalue-minimisations  :   124
 total energy-change (2. order) :-0.7444173E-06  (-0.6358825E-07)
 number of electron      31.9999999 magnetization 
 augmentation part       -1.7274315 magnetization 

 Broyden mixing:
  rms(total) = 0.59764E-04    rms(broyden)= 0.59724E-04
  rms(prec ) = 0.83956E-04
  weight for this iteration     100.00

 eigenvalues of (default mixing * dielectric matrix)
  average eigenvalue GAMMA=   2.0003
  3.2190  2.7402  2.4487  2.1020  1.5278  1.0014  0.9629

 Free energy of the ion-electron system (eV)
  ---------------------------------------------------
  alpha Z        PSCENC =        12.68944982
  Ewald energy   TEWEN  =      -907.56601795
  -1/2 Hartree   DENC   =       -70.83268119
  -exchange  EXHF       =         0.00000000
  -V(xc)+E(xc)   XCENC  =       -72.91084476
  PAW double counting   =       307.74187090     -166.58324439
  entropy T*S    EENTRO =         0.00000000
  eigenvalues    EBANDS =        37.86263359
  atomic energy  EATOM  =       826.37398168
  ---------------------------------------------------
  free energy    TOTEN  =       -33.22485230 eV

  energy without entropy =      -33.22485230  energy(sigma->0) =      -33.22485230


--------------------------------------------------------------------------------------------------------




 average (electrostatic) potential at core
  the test charge radii are     0.9892
  (the norm of the test charge is              1.0000)
       1 -83.2285       2 -83.2277       3 -83.2224       4 -83.2276       5 -83.2291
       6 -83.2284       7 -83.2291       8 -83.2255
 
 
 
 E-fermi :   6.0563     XC(G=0):  -9.1311     alpha+bet :-11.7379


 k-point   1 :       0.0000    0.0000    0.0000
  band No.  band energies     occupation 
      1      -5.9500      2.00000
      2      -1.8761      2.00000
      3      -1.8754      2.00000
      4      -1.8714      2.00000
      5      -1.8609      2.00000
      6      -1.8566      2.00000
      7      -1.8494      2.00000
      8       3.0438      2.00000
      9       3.0472      2.00000
     10       3.0505      2.00000
     11       3.0521      2.00000
     12       3.0540      2.00000
[...]
    MIXING:  cpu time    0.00: real time    0.00
    --------------------------------------------
      LOOP:  cpu time    0.16: real time    0.16

 Broyden mixing:
  rms(total) = 0.72214E-02    rms(broyden)= 0.72210E-02
  rms(prec ) = 0.12410E-01
  weight for this iteration     100.00

 eigenvalues of (default mixing * dielectric matrix)
  average eigenvalue GAMMA=   2.0714
  3.0248  2.4812  1.1240  1.6553

 Free energy of the ion-electron system (eV)
  ---------------------------------------------------
  -1/2 Hartree   DENC   =        -4.61696027
  -V(xc)+E(xc)   XCENC  =         0.94990800
  PAW double counting   =         3.10388903       -3.15330972
  entropy T*S    EENTRO =         0.00000000
  eigenvalues    EBANDS =       -24.53103093
  ---------------------------------------------------
  free energy    TOTEN  =       -28.24750390 eV

  energy without entropy =      -28.24750390


----------------------------------------- Iteration    3(   7)  ---------------------------------------


   POT+DIJ:  cpu time    0.08: real time    0.08
    HAMIL1:  cpu time    0.00: real time    0.00
    LRDIAG:  cpu time    0.01: real time    0.01
    LRDIIS:  cpu time    0.02: real time    0.02
    LRDIAG:  cpu time    0.01: real time    0.01
    MIXING:  cpu time    0.00: real time    0.00
    --------------------------------------------
      LOOP:  cpu time    0.16: real time    0.16

 Broyden mixing:
  rms(total) = 0.53918E-03    rms(broyden)= 0.53837E-03
  rms(prec ) = 0.10458E-02
  weight for this iteration     100.00

 eigenvalues of (default mixing * dielectric matrix)
  average eigenvalue GAMMA=   1.9570
  3.0910  2.4175  1.1175  1.6762  1.4827

 Free energy of the ion-electron system (eV)
  ---------------------------------------------------
  -1/2 Hartree   DENC   =        -4.62977013
  -V(xc)+E(xc)   XCENC  =         0.95789428
  PAW double counting   =         3.06655001       -3.11541054
  entropy T*S    EENTRO =         0.00000000
  eigenvalues    EBANDS =       -24.56777961
  ---------------------------------------------------
  free energy    TOTEN  =       -28.28851599 eV

  energy without entropy =      -28.28851599


----------------------------------------- Iteration    3(   8)  ---------------------------------------


   POT+DIJ:  cpu time    0.08: real time    0.08
    HAMIL1:  cpu time    0.00: real time    0.01
    LRDIAG:  cpu time    0.01: real time    0.01
    LRDIIS:  cpu time    0.02: real time    0.02
    LRDIAG:  cpu time    0.01: real time    0.01
    MIXING:  cpu time    0.00: real time    0.00
    --------------------------------------------
      LOOP:  cpu time    0.16: real time    0.17

 Broyden mixing:
  rms(total) = 0.27579E-03    rms(broyden)= 0.27572E-03
  rms(prec ) = 0.40957E-03
  weight for this iteration     100.00

 eigenvalues of (default mixing * dielectric matrix)
  average eigenvalue GAMMA=   1.9050
  3.0858  2.4704  2.0151  1.6632  1.1298  1.0655

 Free energy of the ion-electron system (eV)
  ---------------------------------------------------
  -1/2 Hartree   DENC   =        -4.63308435
  -V(xc)+E(xc)   XCENC  =         0.95879643
  PAW double counting   =         3.06991657       -3.11883399
  entropy T*S    EENTRO =         0.00000000
  eigenvalues    EBANDS =       -24.56900461
  ---------------------------------------------------
  free energy    TOTEN  =       -28.29220995 eV

  energy without entropy =      -28.29220995


----------------------------------------- Iteration    3(   9)  ---------------------------------------


   POT+DIJ:  cpu time    0.08: real time    0.08
    HAMIL1:  cpu time    0.01: real time    0.01
    LRDIAG:  cpu time    0.01: real time    0.01
    LRDIIS:  cpu time    0.02: real time    0.02
    LRDIAG:  cpu time    0.01: real time    0.01
    MIXING:  cpu time    0.00: real time    0.00
    --------------------------------------------
      LOOP:  cpu time    0.16: real time    0.16

 Broyden mixing:
  rms(total) = 0.10787E-03    rms(broyden)= 0.10785E-03
  rms(prec ) = 0.16270E-03
  weight for this iteration     100.00

 eigenvalues of (default mixing * dielectric matrix)
  average eigenvalue GAMMA=   1.8919
  3.1711  2.7184  2.4035  1.6773  1.2691  1.1061  0.8978

 Free energy of the ion-electron system (eV)
  ---------------------------------------------------
  -1/2 Hartree   DENC   =        -4.63275748
  -V(xc)+E(xc)   XCENC  =         0.95873353
  PAW double counting   =         3.07194026       -3.12089276
  entropy T*S    EENTRO =         0.00000000
  eigenvalues    EBANDS =       -24.56927472
  ---------------------------------------------------
  free energy    TOTEN  =       -28.29225117 eV

  energy without entropy =      -28.29225117


----------------------------------------- Iteration    3(  10)  ---------------------------------------


   POT+DIJ:  cpu time    0.08: real time    0.08
    HAMIL1:  cpu time    0.01: real time    0.01
    LRDIAG:  cpu time    0.01: real time    0.01
    LRDIIS:  cpu time    0.02: real time    0.02
    LRDIAG:  cpu time    0.01: real time    0.01
    MIXING:  cpu time    0.00: real time    0.00
    --------------------------------------------
      LOOP:  cpu time    0.16: real time    0.16

 Broyden mixing:
  rms(total) = 0.16743E-04    rms(broyden)= 0.16734E-04
  rms(prec ) = 0.26198E-04
  weight for this iteration     100.00

 eigenvalues of (default mixing * dielectric matrix)
  average eigenvalue GAMMA=   1.8303
  3.1934  2.7674  2.4462  1.6724  1.3981  0.9834  1.1055  1.0759

 Free energy of the ion-electron system (eV)
  ---------------------------------------------------
  -1/2 Hartree   DENC   =        -4.63285651
  -V(xc)+E(xc)   XCENC  =         0.95878082
  PAW double counting   =         3.07313358       -3.12210689
  entropy T*S    EENTRO =         0.00000000
  eigenvalues    EBANDS =       -24.56953952
  ---------------------------------------------------
  free energy    TOTEN  =       -28.29258852 eV

  energy without entropy =      -28.29258852


----------------------------------------- Iteration    3(  11)  ---------------------------------------


   POT+DIJ:  cpu time    0.08: real time    0.08
    HAMIL1:  cpu time    0.00: real time    0.01
    LRDIAG:  cpu time    0.01: real time    0.01
    LRDIIS:  cpu time    0.02: real time    0.02
    LRDIAG:  cpu time    0.01: real time    0.01
    MIXING:  cpu time    0.00: real time    0.00
    --------------------------------------------
      LOOP:  cpu time    0.16: real time    0.16

 Broyden mixing:
  rms(total) = 0.38887E-05    rms(broyden)= 0.38864E-05
  rms(prec ) = 0.54395E-05
  weight for this iteration     100.00

 eigenvalues of (default mixing * dielectric matrix)
  average eigenvalue GAMMA=   1.8838
  3.2018  2.8002  2.4344  2.3339  1.6734  1.3951  0.9903  1.0177  1.1075

 Free energy of the ion-electron system (eV)
  ---------------------------------------------------
  -1/2 Hartree   DENC   =        -4.63285372
  -V(xc)+E(xc)   XCENC  =         0.95877514
  PAW double counting   =         3.07325134       -3.12222665
  entropy T*S    EENTRO =         0.00000000
  eigenvalues    EBANDS =       -24.56952266
  ---------------------------------------------------
  free energy    TOTEN  =       -28.29257655 eV

  energy without entropy =      -28.29257655


----------------------------------------- Iteration    3(  12)  ---------------------------------------


   POT+DIJ:  cpu time    0.08: real time    0.08
    HAMIL1:  cpu time    0.00: real time    0.01
    LRDIAG:  cpu time    0.01: real time    0.01
    LRDIIS:  cpu time    0.02: real time    0.02
    LRDIAG:  cpu time    0.01: real time    0.01
    MIXING:  cpu time    0.00: real time    0.00
    --------------------------------------------
      LOOP:  cpu time    0.16: real time    0.16

 Broyden mixing:
  rms(total) = 0.11684E-05    rms(broyden)= 0.11680E-05
  rms(prec ) = 0.17093E-05
  weight for this iteration     100.00

 eigenvalues of (default mixing * dielectric matrix)
  average eigenvalue GAMMA=   1.8343
  3.2045  2.8034  2.5289  2.4516  1.6728  1.2811  1.2811  1.1110  1.0044  1.0044

 Free energy of the ion-electron system (eV)
  ---------------------------------------------------
  -1/2 Hartree   DENC   =        -4.63285512
  -V(xc)+E(xc)   XCENC  =         0.95877516
  PAW double counting   =         3.07317378       -3.12214773
  entropy T*S    EENTRO =         0.00000000
  eigenvalues    EBANDS =       -24.56952375
  ---------------------------------------------------
  free energy    TOTEN  =       -28.29257766 eV

  energy without entropy =      -28.29257766


----------------------------------------- Iteration    3(  13)  ---------------------------------------


   POT+DIJ:  cpu time    0.08: real time    0.08
    HAMIL1:  cpu time    0.01: real time    0.01
    LRDIAG:  cpu time    0.01: real time    0.01
    LRDIIS:  cpu time    0.02: real time    0.02
    LRDIAG:  cpu time    0.01: real time    0.01
    MIXING:  cpu time    0.00: real time    0.00
    --------------------------------------------
      LOOP:  cpu time    0.16: real time    0.16

 Broyden mixing:
  rms(total) = 0.21371E-06    rms(broyden)= 0.21360E-06
  rms(prec ) = 0.41510E-06
  weight for this iteration     100.00

 eigenvalues of (default mixing * dielectric matrix)
  average eigenvalue GAMMA=   1.8176
  3.2069  2.8342  2.4449  2.5986  1.6660  1.7038  1.3369  0.9977  0.9977  1.1095
  1.0973

 Free energy of the ion-electron system (eV)
  ---------------------------------------------------
  -1/2 Hartree   DENC   =        -4.63285651
  -V(xc)+E(xc)   XCENC  =         0.95877534
  PAW double counting   =         3.07314700       -3.12212049
  entropy T*S    EENTRO =         0.00000000
  eigenvalues    EBANDS =       -24.56952364
  ---------------------------------------------------
  free energy    TOTEN  =       -28.29257831 eV

  energy without entropy =      -28.29257831


------------------------ aborting loop because EDIFF is reached ----------------------------------------


 change of polarisation eV/A/(eV/A) component  3 :     0.051    -0.028    50.542
 dielectric tensor                  component  3 :     0.056    -0.031    56.880


--------------------------------------------------------------------------------------------------------


    FORLOC:  cpu time    0.01: real time    0.01
    FORNL :  cpu time    0.09: real time    0.09
    STRESS:  cpu time    0.31: real time    0.31
    FORCOR:  cpu time    0.02: real time    0.02
    FORLOC:  cpu time    0.00: real time    0.00
    FORNL :  cpu time    0.10: real time    0.10
    STRESS:  cpu time    0.31: real time    0.31
    FORCOR:  cpu time    0.02: real time    0.02
    FORNLD:  cpu time    0.01: real time    0.01

 PIEZOELECTRIC TENSOR FIELD DIRECTION 3  (e Angst)
 -----------------------------------------------------------------------------
     0.00539 -0.00120  0.00278           ( -0.00001  0.00002 -0.00002)
    -0.00120  0.01424 -0.00214           (  0.00002  0.00001  0.00002)
     0.00278 -0.00214  0.00153           ( -0.00002  0.00002 -0.00002)

 PIEZOELECTRIC TENSOR FIELD DIRECTION 3  (C/m^2)
 -----------------------------------------------------------------------------
     0.00053 -0.00012  0.00027
    -0.00012  0.00139 -0.00021
     0.00027 -0.00021  0.00015


      POSITION         DIRECTION 3           BORN EFFECTIVE CHARGE    (rigid.aug.   ionic)
 -----------------------------------------------------------------------------------------
      5.46878      5.47000      5.46781     0.13667 -0.19615 -5.78134 (  0.21594  4.00000)
      1.36750      1.36531      1.36900    -0.06962  0.12889 -5.76405 (  0.21593  4.00000)
      2.73281      2.73650      0.00356    -0.10468 -0.01242 -5.88317 (  0.21589  4.00000)
      4.10400      4.10606      1.36867    -0.09620 -0.14844 -5.76660 (  0.21593  4.00000)
      2.73856      0.00117      2.73486    -0.14223  0.00690 -5.72251 (  0.21594  4.00000)
      4.10367      1.36736      4.09915     0.06583  0.15410 -5.76647 (  0.21594  4.00000)
      5.46986      2.73165      2.73511     0.10383  0.19881 -5.72579 (  0.21594  4.00000)
      1.36415      4.10261      4.10130     0.09178 -0.12249 -5.80284 (  0.21591  4.00000)
 -----------------------------------------------------------------------------------------
    total drift (improves with k-points):  -0.01463  0.00920-46.21278




--------------------------------------------------------------------------------------------------------


  LATTYP: Found a simple cubic cell.
 ALAT       =     5.4700000000
  
  Lattice vectors:
  
 A1 = (   5.4700000000,   0.0000000000,   0.0000000000)
 A2 = (   0.0000000000,   5.4700000000,   0.0000000000)
 A3 = (   0.0000000000,   0.0000000000,   5.4700000000)


Analysis of symmetry for initial positions (statically):
=====================================================================
 Subroutine PRICEL returns:
 Original cell was already a primitive cell.
 

 Routine SETGRP: Setting up the symmetry group for a 
 simple cubic supercell.


 Subroutine GETGRP returns: Found  1 space group operations
 (whereof  1 operations were pure point group operations)
 out of a pool of 48 trial point group operations.


The static configuration has the point symmetry C_1 .


Analysis of symmetry for dynamics (positions and initial velocities):
=====================================================================
 Subroutine PRICEL returns:
 Original cell was already a primitive cell.
 

 Routine SETGRP: Setting up the symmetry group for a 
 simple cubic supercell.


 Subroutine GETGRP returns: Found  1 space group operations
 (whereof  1 operations were pure point group operations)
 out of a pool of 48 trial point group operations.


The dynamic configuration has the point symmetry C_1 .


 MACROSCOPIC STATIC DIELECTRIC TENSOR (including local field effects in DFT)
 ------------------------------------------------------
          56.883457    -0.100377     0.056070
          -0.100377    56.871991    -0.030812
           0.056069    -0.030813    56.879943
 ------------------------------------------------------



--------------------------------------------------------------------------------------------------------


  LATTYP: Found a simple cubic cell.
 ALAT       =     5.4700000000
  
  Lattice vectors:
  
 A1 = (   5.4700000000,   0.0000000000,   0.0000000000)
 A2 = (   0.0000000000,   5.4700000000,   0.0000000000)
 A3 = (   0.0000000000,   0.0000000000,   5.4700000000)


Analysis of symmetry for initial positions (statically):
=====================================================================
 Subroutine PRICEL returns:
 Original cell was already a primitive cell.
 

 Routine SETGRP: Setting up the symmetry group for a 
 simple cubic supercell.


 Subroutine GETGRP returns: Found  1 space group operations
 (whereof  1 operations were pure point group operations)
 out of a pool of 48 trial point group operations.


The static configuration has the point symmetry C_1 .


Analysis of symmetry for dynamics (positions and initial velocities):
=====================================================================
 Subroutine PRICEL returns:
 Original cell was already a primitive cell.
 

 Routine SETGRP: Setting up the symmetry group for a 
 simple cubic supercell.


 Subroutine GETGRP returns: Found  1 space group operations
 (whereof  1 operations were pure point group operations)
 out of a pool of 48 trial point group operations.


The dynamic configuration has the point symmetry C_1 .
 
 KPOINTS: Automatic mesh                          

Automatic generation of k-mesh.
Space group operators:
 irot       det(A)        alpha          n_x          n_y          n_z        tau_x        tau_y        tau_z
    1     1.000000     0.000001     1.000000     0.000000     0.000000     0.000000     0.000000     0.000000
 
 Subroutine IBZKPT returns following result:
 ===========================================
 
 Found      1 irreducible k-points:
 
 Following reciprocal coordinates:
            Coordinates               Weight
  0.000000  0.000000  0.000000      1.000000
 
 Following cartesian coordinates:
            Coordinates               Weight
  0.000000  0.000000  0.000000      1.000000
 


--------------------------------------------------------------------------------------------------------




 MACROSCOPIC STATIC DIELECTRIC TENSOR (including local field effects in DFT)
 ------------------------------------------------------
          56.883457    -0.100377     0.056070
          -0.100377    56.871991    -0.030812
           0.056069    -0.030813    56.879943
 ------------------------------------------------------


 PIEZOELECTRIC TENSOR  for field in x, y, z        (e  Angst)
          XX          YY          ZZ          XY          YZ          ZX
  --------------------------------------------------------------------------------
  x    -0.00423    -0.01061    -0.01307     0.00284    -0.00083    -0.00533
  y     0.00958     0.00342     0.00017     0.00236     0.00033     0.00209
  z     0.00539     0.01424     0.00153    -0.00120    -0.00214     0.00278

 PIEZOELECTRIC TENSOR  for field in x, y, z        (C/m^2)
          XX          YY          ZZ          XY          YZ          ZX
  --------------------------------------------------------------------------------
  x    -0.00041    -0.00104    -0.00128     0.00028    -0.00008    -0.00052
  y     0.00094     0.00033     0.00002     0.00023     0.00003     0.00020
  z     0.00053     0.00139     0.00015    -0.00012    -0.00021     0.00027
 
 BORN EFFECTIVE CHARGES (in e, cummulative output)
 -------------------------------------------------
 ion    1
    1    -5.73426     0.11094    -0.09390
    2    -0.11405    -5.73605     0.19640
    3     0.13667    -0.19615    -5.78134
 ion    2
    1    -5.78025    -0.18514     0.14996
    2     0.20180    -5.75423    -0.09811
    3    -0.06962     0.12889    -5.76405
 ion    3
    1    -5.87707    -0.10337     0.11460
    2     0.12445    -5.87283     0.03340
    3    -0.10468    -0.01242    -5.88317
 ion    4
    1    -5.75790     0.19087     0.10308
    2    -0.19787    -5.78719     0.08545
    3    -0.09620    -0.14844    -5.76660
 ion    5
    1    -5.77072     0.15550     0.09072
    2    -0.08699    -5.72939    -0.04030
    3    -0.14223     0.00690    -5.72251
 ion    6
    1    -5.74818    -0.01273    -0.15621
    2    -0.06594    -5.74773    -0.07890
    3     0.06583     0.15410    -5.76647
 ion    7
    1    -5.72872    -0.14963    -0.11232
    2     0.09457    -5.77022    -0.19259
    3     0.10383     0.19881    -5.72579
 ion    8
    1    -5.81542     0.01478    -0.11102
    2     0.06495    -5.81305     0.10368
    3     0.09178    -0.12249    -5.80284


--------------------------------------------------------------------------------------------------------


     LOOP+:  cpu time   19.74: real time   20.16
    4ORBIT:  cpu time    0.00: real time    0.00

 total amount of memory used by VASP on root node    32224. kBytes
========================================================================

   base      :      30000. kBytes
   nonl-proj :        202. kBytes
   fftplans  :        782. kBytes
   grid      :       1198. kBytes
   one-center:         24. kBytes
   wavefun   :         18. kBytes
 
  
  
 General timing and accounting informations for this job:
 ========================================================
  
                  Total CPU time used (sec):       20.812
                            User time (sec):       17.278
                          System time (sec):        3.533
                         Elapsed time (sec):       23.225
  
                   Maximum memory used (kb):       66948.
                   Average memory used (kb):           0.
  
                          Minor page faults:       207468
                          Major page faults:            0
                 Voluntary context switches:         1457
