 vasp.5.3.3 18Dez12 (build Jan  9 2014 12:00:49) complex                        
  
 executed on             LinuxIFC date 2014.01.29  10:06:36
 running on   48 total cores
 distrk:  each k-point on   48 cores,    1 groups
 distr:  one band on NCORES_PER_BAND=   1 cores,   48 groups


--------------------------------------------------------------------------------------------------------


 INCAR:
 POTCAR:    PAW Si                                

 ----------------------------------------------------------------------------- 
|                                                                             |
|           W    W    AA    RRRRR   N    N  II  N    N   GGGG   !!!           |
|           W    W   A  A   R    R  NN   N  II  NN   N  G    G  !!!           |
|           W    W  A    A  R    R  N N  N  II  N N  N  G       !!!           |
|           W WW W  AAAAAA  RRRRR   N  N N  II  N  N N  G  GGG   !            |
|           WW  WW  A    A  R   R   N   NN  II  N   NN  G    G                |
|           W    W  A    A  R    R  N    N  II  N    N   GGGG   !!!           |
|                                                                             |
|      For optimal performance we recommend that you set                      |
|        NPAR = 4 - approx SQRT( number of cores)                             |
|      (number of cores/NPAR must be integer)                                 |
|      This setting will greatly improve the performance of VASP for DFT.     |
|      The default NPAR=number of cores might be grossly inefficient          |
|      on modern multi-core architectures or massively parallel machines.     |
|      Do your own testing.                                                   |
|      Unfortunately you need to use the default for hybrid, GW and RPA       |
|      calculations.                                                          |
|                                                                             |
 ----------------------------------------------------------------------------- 

 POTCAR:    PAW Si                                
   VRHFIN =Si: s2p2                                                             
   LEXCH  = 91                                                                  
   EATOM  =   103.3076 eV,    7.5929 Ry                                         
                                                                                
   TITEL  = PAW Si                                                              
   LULTRA =        F    use ultrasoft PP ?                                      
   IUNSCR =        1    unscreen: 0-lin 1-nonlin 2-no                           
   RPACOR =    1.500    partial core radius                                     
   POMASS =   28.085; ZVAL   =    4.000    mass and valenz                      
   RCORE  =    1.900    outmost cutoff radius                                   
   RWIGS  =    2.480; RWIGS  =    1.312    wigner-seitz radius (au A)           
   ENMAX  =  245.435; ENMIN  =  184.076 eV                                      
   ICORE  =        2    local potential                                         
   LCOR   =        T    correct aug charges                                     
   LPAW   =        T    paw PP                                                  
   EAUG   =  322.069                                                            
   DEXC   =    -.001                                                            
   RMAX   =    2.943    core radius for proj-oper                               
   RAUG   =    1.300    factor for augmentation sphere                          
   RDEP   =    1.993    core radius for depl-charge                             
   QCUT   =   -4.247; QGAM   =    8.494    optimization parameters              
                                                                                
   Description                                                                  
     l     E      TYP  RCUT    TYP  RCUT                                        
     0   .000     23  1.900                                                     
     0   .000     23  1.900                                                     
     1   .000     23  1.900                                                     
     1   .000     23  1.900                                                     
     2   .000      7  1.900                                                     
  local pseudopotential read in
  partial core-charges read in
  atomic valenz-charges read in
  non local Contribution for L=           0  read in
    real space projection operators read in
  non local Contribution for L=           0  read in
    real space projection operators read in
  non local Contribution for L=           1  read in
    real space projection operators read in
  non local Contribution for L=           1  read in
    real space projection operators read in
    PAW grid and wavefunctions read in
 
   number of l-projection  operators is LMAX  =           4
   number of lm-projection operators is LMMAX =           8
 
  PAW Si                                :
 energy of atom  1       EATOM= -103.3076
 kinetic energy error for atom=    0.0109 (will be added to EATOM!!)
 
 
 POSCAR: OUTCAR.0015.+1.out 1.0e-02              
  positions in cartesian coordinates
  No initial velocities read in
 exchange correlation table for  LEXCH =        7
   RHO(1)=    0.500       N(1)  =     2000
   RHO(2)=  100.500       N(2)  =     4000

 VTST: version 3.0c, (01/09/14)

 CHAIN: initializing optimizer
 
 OPT: Using VASP Dynamics algorithm
 CHAIN: Read ICHAIN            0
 
 POSCAR: OUTCAR.0015.+1.out 1.0e-02              
  positions in cartesian coordinates
  No initial velocities read in
 


--------------------------------------------------------------------------------------------------------


 ion  position               nearest neighbor table
   1  0.000  0.999  0.000-   4 2.37   2 2.37   8 2.37   6 2.37
   2  0.249  0.250  0.250-   7 2.37   1 2.37   3 2.37   5 2.37
   3  0.500  0.500  0.000-   6 2.37   4 2.37   2 2.37   8 2.37
   4  0.750  0.750  0.250-   1 2.37   5 2.37   7 2.37   3 2.37
   5  0.500  0.000  0.500-   4 2.37   8 2.37   6 2.37   2 2.37
   6  0.750  0.250  0.751-   3 2.37   1 2.37   5 2.37   7 2.37
   7  0.000  0.501  0.500-   4 2.37   2 2.37   8 2.37   6 2.37
   8  0.251  0.750  0.750-   5 2.37   7 2.37   3 2.37   1 2.37
 
  LATTYP: Found a simple cubic cell.
 ALAT       =     5.4700000000
  
  Lattice vectors:
  
 A1 = (   5.4700000000,   0.0000000000,   0.0000000000)
 A2 = (   0.0000000000,   5.4700000000,   0.0000000000)
 A3 = (   0.0000000000,   0.0000000000,   5.4700000000)


Analysis of symmetry for initial positions (statically):
=====================================================================
 Subroutine PRICEL returns:
 Original cell was already a primitive cell.
 

 Routine SETGRP: Setting up the symmetry group for a 
 simple cubic supercell.


 Subroutine GETGRP returns: Found  1 space group operations
 (whereof  1 operations were pure point group operations)
 out of a pool of 48 trial point group operations.


The static configuration has the point symmetry C_1 .


Analysis of symmetry for dynamics (positions and initial velocities):
=====================================================================
 Subroutine PRICEL returns:
 Original cell was already a primitive cell.
 

 Routine SETGRP: Setting up the symmetry group for a 
 simple cubic supercell.


 Subroutine GETGRP returns: Found  1 space group operations
 (whereof  1 operations were pure point group operations)
 out of a pool of 48 trial point group operations.


The dynamic configuration has the point symmetry C_1 .


 irot  :   1
 --------------------------------------------------------------------
 isymop:   1   0   0
           0   1   0
           0   0   1

 gtrans:     0.0000000     0.0000000     0.0000000

 ptrans:     0.0000000     0.0000000     0.0000000
 rotmap:
 (   1->   1)  (   2->   2)  (   3->   3)  (   4->   4)  (   5->   5) 
 (   6->   6)  (   7->   7)  (   8->   8) 
 
 
 KPOINTS: Automatic mesh                          

Automatic generation of k-mesh.
Space group operators:
 irot       det(A)        alpha          n_x          n_y          n_z        tau_x        tau_y        tau_z
    1     1.000000     0.000001     1.000000     0.000000     0.000000     0.000000     0.000000     0.000000
 
 Subroutine IBZKPT returns following result:
 ===========================================
 
 Found      1 irreducible k-points:
 
 Following reciprocal coordinates:
            Coordinates               Weight
  0.000000  0.000000  0.000000      1.000000
 
 Following cartesian coordinates:
            Coordinates               Weight
  0.000000  0.000000  0.000000      1.000000
 
 
 Subroutine IBZKPT_HF returns following result:
 ==============================================
 
 Found      1 k-points in 1st BZ
 the following      1 k-points will be used (e.g. in the exchange kernel)
 Following reciprocal coordinates:   # in IRBZ
  0.000000  0.000000  0.000000       1 t-inv F


--------------------------------------------------------------------------------------------------------




 Dimension of arrays:
   k-points           NKPTS =      1   k-points in BZ     NKDIM =      1   number of bands    NBANDS=     48
   number of dos      NEDOS =    301   number of ions     NIONS =      8
   non local maximal  LDIM  =      4   non local SUM 2l+1 LMDIM =      8
   total plane-waves  NPLWV =  21952
   max r-space proj   IRMAX =      1   max aug-charges    IRDMAX=  36071
   dimension x,y,z NGX =    28 NGY =   28 NGZ =   28
   dimension x,y,z NGXF=    56 NGYF=   56 NGZF=   56
   support grid    NGXF=   112 NGYF=  112 NGZF=  112
   ions per type =               8
 NGX,Y,Z   is equivalent  to a cutoff of   8.51,  8.51,  8.51 a.u.
 NGXF,Y,Z  is equivalent  to a cutoff of  17.02, 17.02, 17.02 a.u.


 I would recommend the setting:
   dimension x,y,z NGX =    19 NGY =   19 NGZ =   19
 SYSTEM =  NAPTHA04                                
 POSCAR =  OUTCAR.0015.+1.out 1.0e-02              

 Startparameter for this run:
   NWRITE =      3    write-flag & timer
   PREC   = normal    normal or accurate (medium, high low for compatibility)
   ISTART =      0    job   : 0-new  1-cont  2-samecut
   ICHARG =      2    charge: 1-file 2-atom 10-const
   ISPIN  =      1    spin polarized calculation?
   LNONCOLLINEAR =      F non collinear calculations
   LSORBIT =      F    spin-orbit coupling
   INIWAV =      1    electr: 0-lowe 1-rand  2-diag
   LASPH  =      F    aspherical Exc in radial PAW
   METAGGA=      F    non-selfconsistent MetaGGA calc.

 Electronic Relaxation 1
   ENCUT  =  200.0 eV  14.70 Ry    3.83 a.u.   6.31  6.31  6.31*2*pi/ulx,y,z
   ENINI  =  200.0     initial cutoff
   ENAUG  =  322.1 eV  augmentation charge cutoff
   NELM   =     60;   NELMIN=  2; NELMDL= -5     # of ELM steps 
   EDIFF  = 0.1E-07   stopping-criterion for ELM
   LREAL  =      F    real-space projection
   NLSPLINE    = F    spline interpolate recip. space projectors
   LCOMPAT=      F    compatible to vasp.4.4
   GGA_COMPAT  = T    GGA compatible to vasp.4.4-vasp.4.6
   LMAXPAW     = -100 max onsite density
   LMAXMIX     =    2 max onsite mixed and CHGCAR
   VOSKOWN=      0    Vosko Wilk Nusair interpolation
   ROPT   =    0.00000
 Ionic relaxation
   EDIFFG = 0.1E-06   stopping-criterion for IOM
   NSW    =      0    number of steps for IOM
   NBLOCK =      1;   KBLOCK =      1    inner block; outer block 
   IBRION =     -1    ionic relax: 0-MD 1-quasi-New 2-CG
   NFREE  =      0    steps in history (QN), initial steepest desc. (CG)
   ISIF   =      2    stress and relaxation
   IWAVPR =     10    prediction:  0-non 1-charg 2-wave 3-comb
   ISYM   =      2    0-nonsym 1-usesym 2-fastsym
   LCORR  =      T    Harris-Foulkes like correction to forces

   POTIM  = 0.5000    time-step for ionic-motion
   TEIN   =    0.0    initial temperature
   TEBEG  =    0.0;   TEEND  =   0.0 temperature during run
   SMASS  =  -3.00    Nose mass-parameter (am)
   estimated Nose-frequenzy (Omega)   =  0.10E-29 period in steps =****** mass=  -0.684E-27a.u.
   SCALEE = 1.0000    scale energy and forces
   NPACO  =    256;   APACO  = 16.0  distance and # of slots for P.C.
   PSTRESS=    0.0 pullay stress

  Mass of Ions in am
   POMASS =  28.09
  Ionic Valenz
   ZVAL   =   4.00
  Atomic Wigner-Seitz radii
   RWIGS  =  -1.00
  virtual crystal weights 
   VCA    =   1.00
   NELECT =      32.0000    total number of electrons
   NUPDOWN=      -1.0000    fix difference up-down

 DOS related values:
   EMIN   =  10.00;   EMAX   =-10.00  energy-range for DOS
   EFERMI =   0.00
   ISMEAR =     0;   SIGMA  =   0.02  broadening in eV -4-tet -1-fermi 0-gaus

 Electronic relaxation 2 (details)
   IALGO  =     68    algorithm
   LDIAG  =      T    sub-space diagonalisation (order eigenvalues)
   LSUBROT=      T    optimize rotation matrix (better conditioning)
   TURBO    =      0    0=normal 1=particle mesh
   IRESTART =      0    0=no restart 2=restart with 2 vectors
   NREBOOT  =      0    no. of reboots
   NMIN     =      0    reboot dimension
   EREF     =   0.00    reference energy to select bands
   IMIX   =      4    mixing-type and parameters
     AMIX     =   0.40;   BMIX     =  1.00
     AMIX_MAG =   1.60;   BMIX_MAG =  1.00
     AMIN     =   0.10
     WC   =   100.;   INIMIX=   1;  MIXPRE=   1;  MAXMIX= -45

 Intra band minimization:
   WEIMIN = 0.0000     energy-eigenvalue tresh-hold
   EBREAK =  0.52E-10  absolut break condition
   DEPER  =   0.30     relativ break condition  

   TIME   =   0.40     timestep for ELM

  volume/ion in A,a.u.               =      20.46       138.06
  Fermi-wavevector in a.u.,A,eV,Ry     =   0.950176  1.795573 12.283814  0.902835
  Thomas-Fermi vector in A             =   2.078528
 
 Write flags
   LWAVE  =      F    write WAVECAR
   LCHARG =      F    write CHGCAR
   LVTOT  =      F    write LOCPOT, total local potential
   LVHAR  =      F    write LOCPOT, Hartree potential only
   LELF   =      F    write electronic localiz. function (ELF)
   LORBIT =      0    0 simple, 1 ext, 2 COOP (PROOUT)


 Dipole corrections
   LMONO  =      F    monopole corrections only (constant potential shift)
   LDIPOL =      F    correct potential (dipole corrections)
   IDIPOL =      0    1-x, 2-y, 3-z, 4-all directions 
   EPSILON=  1.0000000 bulk dielectric constant

 Exchange correlation treatment:
   GGA     =    --    GGA type
   LEXCH   =     7    internal setting for exchange type
   VOSKOWN=      0    Vosko Wilk Nusair interpolation
   LHFCALC =     F    Hartree Fock is set to
   LHFONE  =     F    Hartree Fock one center treatment
   AEXX    =    0.0000 exact exchange contribution

 Linear response parameters
   LEPSILON=     T    determine dielectric tensor
   LRPA    =     F    only Hartree local field effects (RPA)
   LNABLA  =     F    use nabla operator in PAW spheres
   LVEL    =     F    velocity operator in full k-point grid
   LINTERFAST=   F  fast interpolation
   KINTER  =     0    interpolate to denser k-point grid
   CSHIFT  =0.1000    complex shift for real part using Kramers Kronig
   OMEGAMAX=  -1.0    maximum frequency
   DEG_THRESHOLD= 0.2000000E-02 threshold for treating states as degnerate
   RTIME   =    0.100 relaxation time in fs

 Orbital magnetization related:
   ORBITALMAG=     F  switch on orbital magnetization
   LCHIMAG   =     F  perturbation theory with respect to B field
   DQ        =  0.001000  dq finite difference perturbation B field



--------------------------------------------------------------------------------------------------------


 Static calculation
 charge density and potential will be updated during run
 non-spin polarized calculation
 RMM-DIIS sequential band-by-band and
  variant of blocked Davidson during initial phase
 perform sub-space diagonalisation
    before iterative eigenvector-optimisation
 modified Broyden-mixing scheme, WC =      100.0
 initial mixing is a Kerker type mixing with AMIX =  0.4000 and BMIX =      1.0000
 Hartree-type preconditioning will be used
 using additional bands           32
 reciprocal scheme for non local part
 use partial core corrections
 calculate Harris-corrections to forces 
   (improved forces if not selfconsistent)
 use gradient corrections 
 use of overlap-Matrix (Vanderbilt PP)
 Gauss-broadening in eV      SIGMA  =   0.02


--------------------------------------------------------------------------------------------------------


  energy-cutoff  :      200.00
  volume of cell :      163.67
      direct lattice vectors                 reciprocal lattice vectors
     5.470000000  0.000000000  0.000000000     0.182815356  0.000000000  0.000000000
     0.000000000  5.470000000  0.000000000     0.000000000  0.182815356  0.000000000
     0.000000000  0.000000000  5.470000000     0.000000000  0.000000000  0.182815356

  length of vectors
     5.470000000  5.470000000  5.470000000     0.182815356  0.182815356  0.182815356


 
 k-points in units of 2pi/SCALE and weight: Automatic mesh                          
   0.00000000  0.00000000  0.00000000       1.000
 
 k-points in reciprocal lattice and weights: Automatic mesh                          
   0.00000000  0.00000000  0.00000000       1.000
 
 position of ions in fractional coordinates (direct lattice) 
   0.00019519  0.99935059  0.00042487
   0.24935059  0.25042487  0.24986683
   0.50042487  0.49986683  0.00026910
   0.74986683  0.75026910  0.25035000
   0.50026910  0.00035000  0.50002795
   0.75035000  0.25002795  0.75065240
   0.00002795  0.50065240  0.49997934
   0.25065240  0.74997934  0.74996787
 
 position of ions in cartesian coordinates  (Angst):
   0.00106767  5.46644773  0.00232406
   1.36394773  1.36982406  1.36677158
   2.73732406  2.73427158  0.00147200
   4.10177158  4.10397200  1.36941447
   2.73647200  0.00191447  2.73515288
   4.10441447  1.36765288  4.10606861
   0.00015288  2.73856861  2.73488697
   1.37106861  4.10238697  4.10232424
 


--------------------------------------------------------------------------------------------------------


 k-point  1 :   0.0000 0.0000 0.0000  plane waves:    1021

 maximum and minimum number of plane-waves per node :      1021     1021

 maximum number of plane-waves:      1021
 maximum index in each direction: 
   IXMAX=    6   IYMAX=    6   IZMAX=    6
   IXMIN=   -6   IYMIN=   -6   IZMIN=   -6

 NGX is ok and might be reduce to  26
 NGY is ok and might be reduce to  26
 NGZ is ok and might be reduce to  26

 serial   3D FFT for wavefunctions
 parallel 3D FFT for charge:
    minimum data exchange during FFTs selected (reduces bandwidth)


 total amount of memory used by VASP on root node    32224. kBytes
========================================================================

   base      :      30000. kBytes
   nonl-proj :        202. kBytes
   fftplans  :        782. kBytes
   grid      :       1198. kBytes
   one-center:         24. kBytes
   wavefun   :         18. kBytes
 
 Broyden mixing: mesh for mixing (old mesh)
   NGX = 13   NGY = 13   NGZ = 13
  (NGX  = 56   NGY  = 56   NGZ  = 56)
  gives a total of   2197 points

 initial charge density was supplied:
 charge density of overlapping atoms calculated
 number of electron      32.0000000 magnetization 
 keeping initial charge density in first step


--------------------------------------------------------------------------------------------------------


 Maximum index for augmentation-charges         1782 (set IRDMAX)


--------------------------------------------------------------------------------------------------------


 First call to EWALD:  gamma=   0.324
 Maximum number of real-space cells 3x 3x 3
 Maximum number of reciprocal cells 3x 3x 3

 FEWALD executed in parallel
    FEWALD:  cpu time    0.00: real time    0.00


----------------------------------------- Iteration    1(   1)  ---------------------------------------


    POTLOK:  cpu time    0.03: real time    0.03
    SETDIJ:  cpu time    0.02: real time    0.02
     EDDAV:  cpu time    0.41: real time    0.41
       DOS:  cpu time    0.00: real time    0.00
    --------------------------------------------
      LOOP:  cpu time    0.46: real time    0.47

 eigenvalue-minimisations  :    96
 total energy-change (2. order) :-0.1012025E+02  (-0.7955949E+03)
 number of electron      32.0000000 magnetization 
 augmentation part       32.0000000 magnetization 

 Free energy of the ion-electron system (eV)
  ---------------------------------------------------
  alpha Z        PSCENC =        12.68944982
  Ewald energy   TEWEN  =      -907.56842050
  -1/2 Hartree   DENC   =       -45.63559505
  -exchange  EXHF       =         0.00000000
  -V(xc)+E(xc)   XCENC  =       -76.79674594
  PAW double counting   =       265.93453375     -123.69690146
  entropy T*S    EENTRO =        -0.00035020
  eigenvalues    EBANDS =        38.57979676
  atomic energy  EATOM  =       826.37398168
  ---------------------------------------------------
  free energy    TOTEN  =       -10.12025115 eV

  energy without entropy =      -10.11990095  energy(sigma->0) =      -10.12007605


--------------------------------------------------------------------------------------------------------




 average (electrostatic) potential at core
  the test charge radii are     0.9892
  (the norm of the test charge is              1.0000)
       1 -84.3516       2 -84.3491       3 -84.3516       4 -84.3556       5 -84.3485
       6 -84.3480       7 -84.3507       8 -84.3497
 
 
 
 E-fermi :   6.6067     XC(G=0):  -9.5533     alpha+bet :-11.7379


 k-point   1 :       0.0000    0.0000    0.0000
  band No.  band energies     occupation 
      1      -6.5896      2.00000
      2      -2.4146      2.00000
      3      -2.2504      2.00000
      4      -2.1223      2.00000
      5      -2.0289      2.00000
      6      -1.8770      2.00000
      7      -1.6731      2.00000
      8       2.7429      2.00000
      9       2.8507      2.00000
     10       2.9931      2.00000
     11       3.1597      2.00000
     12       3.3473      2.00000
     13       4.0805      2.00000
     14       6.1415      2.00000
     15       6.3640      2.00000
     16       6.5658      1.99610
     17       6.6475      0.00390
     18       6.8117      0.00000
     19       6.9083      0.00000
     20       7.1680      0.00000
     21       7.3756      0.00000
     22       8.0478      0.00000
     23       8.9800      0.00000
     24       9.3757      0.00000
     25      10.4508      0.00000
     26      11.4545      0.00000
     27      13.5063      0.00000
     28      14.7734      0.00000
     29      16.5552      0.00000
     30      16.8924      0.00000
     31      17.3666      0.00000
     32      17.5834      0.00000
     33      17.9236      0.00000
     34      18.1284      0.00000
     35      18.4955      0.00000
     36      18.8800      0.00000
     37      19.3771      0.00000
     38      19.5101      0.00000
     39      19.8585      0.00000
     40      20.2516      0.00000
     41      21.0916      0.00000
     42      21.6810      0.00000
     43      22.1826      0.00000
     44      22.7645      0.00000
     45      23.9080      0.00000
     46      24.3959      0.00000
     47      24.8060      0.00000
     48      25.8398      0.00000


--------------------------------------------------------------------------------------------------------


 soft charge-density along one line, spin component           1
         0         1         2         3         4         5         6         7         8         9
 total charge-density along one line
 
 pseudopotential strength for first ion, spin component:           1
 18.662   0.000   0.000   0.000   0.000   0.000   0.000   0.000
  0.000   0.006   0.000   0.000   0.000   0.000   0.000   0.000
  0.000   0.000   4.216   0.000   0.000  -0.004   0.000   0.000
  0.000   0.000   0.000   4.216   0.000   0.000  -0.004   0.000
  0.000   0.000   0.000   0.000   4.216   0.000   0.000  -0.004
  0.000   0.000  -0.004   0.000   0.000   0.005   0.000   0.000
  0.000   0.000   0.000  -0.004   0.000   0.000   0.005   0.000
  0.000   0.000   0.000   0.000  -0.004   0.000   0.000   0.005
 total augmentation occupancy for first ion, spin component:           1
  2.000   0.000   0.000   0.000   0.000   0.000   0.000   0.000
  0.000   0.000   0.000   0.000   0.000   0.000   0.000   0.000
  0.000   0.000   0.667   0.000   0.000   0.000   0.000   0.000
  0.000   0.000   0.000   0.667   0.000   0.000   0.000   0.000
  0.000   0.000   0.000   0.000   0.667   0.000   0.000   0.000
  0.000   0.000   0.000   0.000   0.000   0.000   0.000   0.000
  0.000   0.000   0.000   0.000   0.000   0.000   0.000   0.000
  0.000   0.000   0.000   0.000   0.000   0.000   0.000   0.000


----------------------------------------- Iteration    1(   2)  ---------------------------------------


     EDDAV:  cpu time    0.97: real time    0.97
       DOS:  cpu time    0.00: real time    0.00
    --------------------------------------------
      LOOP:  cpu time    0.98: real time    0.98

 eigenvalue-minimisations  :   144
 total energy-change (2. order) :-0.2433039E+02  (-0.2432660E+02)
 number of electron      32.0000000 magnetization 
 augmentation part       32.0000000 magnetization 

 Free energy of the ion-electron system (eV)
  ---------------------------------------------------
  alpha Z        PSCENC =        12.68944982
  Ewald energy   TEWEN  =      -907.56842050
  -1/2 Hartree   DENC   =       -45.63559505
  -exchange  EXHF       =         0.00000000
  -V(xc)+E(xc)   XCENC  =       -76.79674594
  PAW double counting   =       265.93453375     -123.69690146
  entropy T*S    EENTRO =         0.00000000
  eigenvalues    EBANDS =        14.24905264
  atomic energy  EATOM  =       826.37398168
  ---------------------------------------------------
  free energy    TOTEN  =       -34.45064506 eV

  energy without entropy =      -34.45064506  energy(sigma->0) =      -34.45064506


--------------------------------------------------------------------------------------------------------




 average (electrostatic) potential at core
  the test charge radii are     0.9892
  (the norm of the test charge is              1.0000)
       1 -84.3516       2 -84.3491       3 -84.3516       4 -84.3556       5 -84.3485
       6 -84.3480       7 -84.3507       8 -84.3497
 
 
 
 E-fermi :   5.2480     XC(G=0):  -9.5533     alpha+bet :-11.7379


 k-point   1 :       0.0000    0.0000    0.0000
  band No.  band energies     occupation 
      1      -6.6371      2.00000
      2      -2.6383      2.00000
      3      -2.6349      2.00000
      4      -2.6334      2.00000
      5      -2.6290      2.00000
      6      -2.6209      2.00000
      7      -2.6183      2.00000
      8       2.3763      2.00000
      9       2.3784      2.00000
     10       2.3804      2.00000
     11       2.3818      2.00000
     12       2.3846      2.00000
     13       2.3948      2.00000
     14       5.0715      2.00000
     15       5.0805      2.00000
     16       5.0881      2.00000
     17       6.1508      0.00000
     18       6.1527      0.00000
     19       6.1541      0.00000
     20       6.1565      0.00000
     21       6.1586      0.00000
     22       6.1671      0.00000
     23       7.8523      0.00000
     24       7.8573      0.00000
     25       7.8619      0.00000
     26       8.1267      0.00000
     27      13.2004      0.00000
     28      13.2617      0.00000
     29      13.2698      0.00000
     30      15.0998      0.00000
     31      15.1340      0.00000
     32      15.1720      0.00000
     33      15.2490      0.00000
     34      15.3101      0.00000
     35      15.6318      0.00000
     36      16.3836      0.00000
     37      16.4223      0.00000
     38      16.4488      0.00000
     39      16.5306      0.00000
     40      16.7188      0.00000
     41      16.7520      0.00000
     42      16.7667      0.00000
     43      16.8711      0.00000
     44      17.2374      0.00000
     45      17.9140      0.00000
     46      17.9575      0.00000
     47      17.9944      0.00000
     48      18.0145      0.00000


--------------------------------------------------------------------------------------------------------


 soft charge-density along one line, spin component           1
         0         1         2         3         4         5         6         7         8         9
 total charge-density along one line
 
 pseudopotential strength for first ion, spin component:           1
 18.662   0.000   0.000   0.000   0.000   0.000   0.000   0.000
  0.000   0.006   0.000   0.000   0.000   0.000   0.000   0.000
  0.000   0.000   4.216   0.000   0.000  -0.004   0.000   0.000
  0.000   0.000   0.000   4.216   0.000   0.000  -0.004   0.000
  0.000   0.000   0.000   0.000   4.216   0.000   0.000  -0.004
  0.000   0.000  -0.004   0.000   0.000   0.005   0.000   0.000
  0.000   0.000   0.000  -0.004   0.000   0.000   0.005   0.000
  0.000   0.000   0.000   0.000  -0.004   0.000   0.000   0.005
 total augmentation occupancy for first ion, spin component:           1
  2.000   0.000   0.000   0.000   0.000   0.000   0.000   0.000
  0.000   0.000   0.000   0.000   0.000   0.000   0.000   0.000
  0.000   0.000   0.667   0.000   0.000   0.000   0.000   0.000
  0.000   0.000   0.000   0.667   0.000   0.000   0.000   0.000
  0.000   0.000   0.000   0.000   0.667   0.000   0.000   0.000
  0.000   0.000   0.000   0.000   0.000   0.000   0.000   0.000
  0.000   0.000   0.000   0.000   0.000   0.000   0.000   0.000
  0.000   0.000   0.000   0.000   0.000   0.000   0.000   0.000


----------------------------------------- Iteration    1(   3)  ---------------------------------------


     EDDAV:  cpu time    0.39: real time    0.39
       DOS:  cpu time    0.00: real time    0.00
    --------------------------------------------
      LOOP:  cpu time    0.40: real time    0.40

 eigenvalue-minimisations  :    96
 total energy-change (2. order) :-0.1672710E+00  (-0.1672710E+00)
 number of electron      32.0000000 magnetization 
 augmentation part       32.0000000 magnetization 

 Free energy of the ion-electron system (eV)
  ---------------------------------------------------
  alpha Z        PSCENC =        12.68944982
  Ewald energy   TEWEN  =      -907.56842050
  -1/2 Hartree   DENC   =       -45.63559505
  -exchange  EXHF       =         0.00000000
  -V(xc)+E(xc)   XCENC  =       -76.79674594
  PAW double counting   =       265.93453375     -123.69690146
  entropy T*S    EENTRO =         0.00000000
  eigenvalues    EBANDS =        14.08178162
  atomic energy  EATOM  =       826.37398168
  ---------------------------------------------------
  free energy    TOTEN  =       -34.61791609 eV

  energy without entropy =      -34.61791609  energy(sigma->0) =      -34.61791609


--------------------------------------------------------------------------------------------------------




 average (electrostatic) potential at core
  the test charge radii are     0.9892
  (the norm of the test charge is              1.0000)
       1 -84.3516       2 -84.3491       3 -84.3516       4 -84.3556       5 -84.3485
       6 -84.3480       7 -84.3507       8 -84.3497
 
 
 
 E-fermi :   5.2211     XC(G=0):  -9.5533     alpha+bet :-11.7379


 k-point   1 :       0.0000    0.0000    0.0000
  band No.  band energies     occupation 
      1      -6.6371      2.00000
      2      -2.6411      2.00000
      3      -2.6361      2.00000
      4      -2.6350      2.00000
      5      -2.6312      2.00000
      6      -2.6235      2.00000
      7      -2.6212      2.00000
      8       2.3742      2.00000
      9       2.3750      2.00000
     10       2.3757      2.00000
     11       2.3784      2.00000
     12       2.3797      2.00000
     13       2.3832      2.00000
     14       5.0601      2.00000
     15       5.0676      2.00000
     16       5.0723      2.00000
     17       6.1475      0.00000
     18       6.1489      0.00000
     19       6.1501      0.00000
     20       6.1541      0.00000
     21       6.1565      0.00000
     22       6.1623      0.00000
     23       7.8464      0.00000
     24       7.8490      0.00000
     25       7.8531      0.00000
     26       8.1178      0.00000
     27      13.1845      0.00000
     28      13.1865      0.00000
     29      13.2692      0.00000
     30      15.0839      0.00000
     31      15.0876      0.00000
     32      15.0963      0.00000
     33      15.1106      0.00000
     34      15.1265      0.00000
     35      15.1794      0.00000
     36      16.3202      0.00000
     37      16.3316      0.00000
     38      16.3386      0.00000
     39      16.3609      0.00000
     40      16.4364      0.00000
     41      16.4894      0.00000
     42      16.7109      0.00000
     43      16.7151      0.00000
     44      16.8191      0.00000
     45      17.8864      0.00000
     46      17.8979      0.00000
     47      17.9192      0.00000
     48      17.9352      0.00000


--------------------------------------------------------------------------------------------------------


 soft charge-density along one line, spin component           1
         0         1         2         3         4         5         6         7         8         9
 total charge-density along one line
 
 pseudopotential strength for first ion, spin component:           1
 18.662   0.000   0.000   0.000   0.000   0.000   0.000   0.000
  0.000   0.006   0.000   0.000   0.000   0.000   0.000   0.000
  0.000   0.000   4.216   0.000   0.000  -0.004   0.000   0.000
  0.000   0.000   0.000   4.216   0.000   0.000  -0.004   0.000
  0.000   0.000   0.000   0.000   4.216   0.000   0.000  -0.004
  0.000   0.000  -0.004   0.000   0.000   0.005   0.000   0.000
  0.000   0.000   0.000  -0.004   0.000   0.000   0.005   0.000
  0.000   0.000   0.000   0.000  -0.004   0.000   0.000   0.005
 total augmentation occupancy for first ion, spin component:           1
  2.000   0.000   0.000   0.000   0.000   0.000   0.000   0.000
  0.000   0.000   0.000   0.000   0.000   0.000   0.000   0.000
  0.000   0.000   0.667   0.000   0.000   0.000   0.000   0.000
  0.000   0.000   0.000   0.667   0.000   0.000   0.000   0.000
  0.000   0.000   0.000   0.000   0.667   0.000   0.000   0.000
  0.000   0.000   0.000   0.000   0.000   0.000   0.000   0.000
  0.000   0.000   0.000   0.000   0.000   0.000   0.000   0.000
  0.000   0.000   0.000   0.000   0.000   0.000   0.000   0.000


----------------------------------------- Iteration    1(   4)  ---------------------------------------


     EDDAV:  cpu time    2.01: real time    2.01
       DOS:  cpu time    0.00: real time    0.00
    --------------------------------------------
      LOOP:  cpu time    2.02: real time    2.02

 eigenvalue-minimisations  :   192
 total energy-change (2. order) :-0.3547767E-03  (-0.3547767E-03)
 number of electron      32.0000000 magnetization 
 augmentation part       32.0000000 magnetization 

 Free energy of the ion-electron system (eV)
  ---------------------------------------------------
  alpha Z        PSCENC =        12.68944982
  Ewald energy   TEWEN  =      -907.56842050
  -1/2 Hartree   DENC   =       -45.63559505
  -exchange  EXHF       =         0.00000000
  -V(xc)+E(xc)   XCENC  =       -76.79674594
  PAW double counting   =       265.93453375     -123.69690146
  entropy T*S    EENTRO =         0.00000000
  eigenvalues    EBANDS =        14.08142684
  atomic energy  EATOM  =       826.37398168
  ---------------------------------------------------
  free energy    TOTEN  =       -34.61827086 eV

  energy without entropy =      -34.61827086  energy(sigma->0) =      -34.61827086


--------------------------------------------------------------------------------------------------------




 average (electrostatic) potential at core
  the test charge radii are     0.9892
  (the norm of the test charge is              1.0000)
       1 -84.3516       2 -84.3491       3 -84.3516       4 -84.3556       5 -84.3485
       6 -84.3480       7 -84.3507       8 -84.3497
 
 
 
 E-fermi :   5.1997     XC(G=0):  -9.5533     alpha+bet :-11.7379


 k-point   1 :       0.0000    0.0000    0.0000
  band No.  band energies     occupation 
      1      -6.6371      2.00000
      2      -2.6411      2.00000
      3      -2.6361      2.00000
      4      -2.6350      2.00000
      5      -2.6312      2.00000
      6      -2.6235      2.00000
      7      -2.6212      2.00000
      8       2.3742      2.00000
      9       2.3749      2.00000
     10       2.3757      2.00000
     11       2.3784      2.00000
     12       2.3797      2.00000
     13       2.3832      2.00000
     14       5.0600      2.00000
     15       5.0676      2.00000
     16       5.0723      2.00000
     17       6.1474      0.00000
     18       6.1489      0.00000
     19       6.1501      0.00000
     20       6.1541      0.00000
     21       6.1565      0.00000
     22       6.1623      0.00000
     23       7.8464      0.00000
     24       7.8490      0.00000
     25       7.8531      0.00000
     26       8.1178      0.00000
     27      13.1837      0.00000
     28      13.1838      0.00000
     29      13.2692      0.00000
     30      15.0770      0.00000
     31      15.0831      0.00000
     32      15.0839      0.00000
     33      15.0865      0.00000
     34      15.0878      0.00000
     35      15.0906      0.00000
     36      16.3012      0.00000
     37      16.3048      0.00000
     38      16.3065      0.00000
     39      16.3127      0.00000
     40      16.3159      0.00000
     41      16.3219      0.00000
     42      16.7009      0.00000
     43      16.7037      0.00000
     44      16.7084      0.00000
     45      17.8760      0.00000
     46      17.8799      0.00000
     47      17.8870      0.00000
     48      17.8910      0.00000


--------------------------------------------------------------------------------------------------------


 soft charge-density along one line, spin component           1
         0         1         2         3         4         5         6         7         8         9
 total charge-density along one line
 
 pseudopotential strength for first ion, spin component:           1
 18.662   0.000   0.000   0.000   0.000   0.000   0.000   0.000
  0.000   0.006   0.000   0.000   0.000   0.000   0.000   0.000
  0.000   0.000   4.216   0.000   0.000  -0.004   0.000   0.000
  0.000   0.000   0.000   4.216   0.000   0.000  -0.004   0.000
  0.000   0.000   0.000   0.000   4.216   0.000   0.000  -0.004
  0.000   0.000  -0.004   0.000   0.000   0.005   0.000   0.000
  0.000   0.000   0.000  -0.004   0.000   0.000   0.005   0.000
  0.000   0.000   0.000   0.000  -0.004   0.000   0.000   0.005
 total augmentation occupancy for first ion, spin component:           1
  2.000   0.000   0.000   0.000   0.000   0.000   0.000   0.000
  0.000   0.000   0.000   0.000   0.000   0.000   0.000   0.000
  0.000   0.000   0.667   0.000   0.000   0.000   0.000   0.000
  0.000   0.000   0.000   0.667   0.000   0.000   0.000   0.000
  0.000   0.000   0.000   0.000   0.667   0.000   0.000   0.000
  0.000   0.000   0.000   0.000   0.000   0.000   0.000   0.000
  0.000   0.000   0.000   0.000   0.000   0.000   0.000   0.000
  0.000   0.000   0.000   0.000   0.000   0.000   0.000   0.000


----------------------------------------- Iteration    1(   5)  ---------------------------------------


     EDDAV:  cpu time    0.38: real time    0.39
       DOS:  cpu time    0.00: real time    0.00
    CHARGE:  cpu time    0.02: real time    0.02
    MIXING:  cpu time    0.00: real time    0.00
    --------------------------------------------
      LOOP:  cpu time    0.41: real time    0.42

 eigenvalue-minimisations  :    96
 total energy-change (2. order) :-0.3052378E-08  (-0.3051876E-08)
 number of electron      31.9999999 magnetization 
 augmentation part       -1.8053294 magnetization 

 Broyden mixing:
  rms(total) = 0.79305E+00    rms(broyden)= 0.79300E+00
  rms(prec ) = 0.15229E+01
  weight for this iteration     100.00

 Free energy of the ion-electron system (eV)
  ---------------------------------------------------
  alpha Z        PSCENC =        12.68944982
  Ewald energy   TEWEN  =      -907.56842050
  -1/2 Hartree   DENC   =       -45.63559505
  -exchange  EXHF       =         0.00000000
  -V(xc)+E(xc)   XCENC  =       -76.79674594
  PAW double counting   =       265.93453375     -123.69690146
  entropy T*S    EENTRO =         0.00000000
  eigenvalues    EBANDS =        14.08142684
  atomic energy  EATOM  =       826.37398168
  ---------------------------------------------------
  free energy    TOTEN  =       -34.61827087 eV

  energy without entropy =      -34.61827087  energy(sigma->0) =      -34.61827087


--------------------------------------------------------------------------------------------------------




 average (electrostatic) potential at core
  the test charge radii are     0.9892
  (the norm of the test charge is              1.0000)
       1 -84.3516       2 -84.3491       3 -84.3516       4 -84.3556       5 -84.3485
       6 -84.3480       7 -84.3507       8 -84.3497
 
 
 
 E-fermi :   5.1966     XC(G=0):  -9.5533     alpha+bet :-11.7379


 k-point   1 :       0.0000    0.0000    0.0000
  band No.  band energies     occupation 
      1      -6.6371      2.00000
      2      -2.6411      2.00000
      3      -2.6361      2.00000
      4      -2.6350      2.00000
      5      -2.6312      2.00000
      6      -2.6235      2.00000
      7      -2.6212      2.00000
      8       2.3742      2.00000
      9       2.3749      2.00000
     10       2.3757      2.00000
     11       2.3784      2.00000
     12       2.3797      2.00000
     13       2.3832      2.00000
     14       5.0600      2.00000
     15       5.0676      2.00000
     16       5.0723      2.00000
     17       6.1474      0.00000
     18       6.1489      0.00000
     19       6.1501      0.00000
     20       6.1541      0.00000
     21       6.1565      0.00000
     22       6.1623      0.00000
     23       7.8464      0.00000
     24       7.8490      0.00000
     25       7.8531      0.00000
     26       8.1178      0.00000
     27      13.1837      0.00000
     28      13.1838      0.00000
     29      13.2692      0.00000
     30      15.0769      0.00000
     31      15.0831      0.00000
     32      15.0839      0.00000
     33      15.0864      0.00000
     34      15.0877      0.00000
     35      15.0906      0.00000
     36      16.3007      0.00000
     37      16.3045      0.00000
     38      16.3062      0.00000
     39      16.3126      0.00000
     40      16.3156      0.00000
     41      16.3215      0.00000
     42      16.7009      0.00000
     43      16.7036      0.00000
     44      16.7082      0.00000
     45      17.8722      0.00000
     46      17.8743      0.00000
     47      17.8803      0.00000
     48      17.8845      0.00000


--------------------------------------------------------------------------------------------------------


 soft charge-density along one line, spin component           1
         0         1         2         3         4         5         6         7         8         9
 total charge-density along one line
 
 pseudopotential strength for first ion, spin component:           1
 18.662   0.000   0.000   0.000   0.000   0.000   0.000   0.000
  0.000   0.006   0.000   0.000   0.000   0.000   0.000   0.000
  0.000   0.000   4.216   0.000   0.000  -0.004   0.000   0.000
  0.000   0.000   0.000   4.216   0.000   0.000  -0.004   0.000
  0.000   0.000   0.000   0.000   4.216   0.000   0.000  -0.004
  0.000   0.000  -0.004   0.000   0.000   0.005   0.000   0.000
  0.000   0.000   0.000  -0.004   0.000   0.000   0.005   0.000
  0.000   0.000   0.000   0.000  -0.004   0.000   0.000   0.005
 total augmentation occupancy for first ion, spin component:           1
  1.380  -1.052   0.000   0.001  -0.001  -0.001  -0.001   0.001
 -1.052   0.919  -0.001  -0.001   0.000   0.001   0.001  -0.001
  0.000  -0.001   1.165   0.000   0.001  -0.759   0.000  -0.001
  0.001  -0.001   0.000   1.164   0.000   0.000  -0.758   0.001
 -0.001   0.000   0.001   0.000   1.165  -0.001   0.001  -0.758
 -0.001   0.001  -0.759   0.000  -0.001   0.570   0.000   0.001
 -0.001   0.001   0.000  -0.758   0.001   0.000   0.570  -0.001
  0.001  -0.001  -0.001   0.001  -0.758   0.001  -0.001   0.570


----------------------------------------- Iteration    1(   6)  ---------------------------------------


    POTLOK:  cpu time    0.02: real time    0.02
    SETDIJ:  cpu time    0.02: real time    0.02
    EDDIAG:  cpu time    0.03: real time    0.03
  RMM-DIIS:  cpu time    0.04: real time    0.04
    ORTHCH:  cpu time    0.01: real time    0.01
       DOS:  cpu time    0.00: real time    0.00
    CHARGE:  cpu time    0.03: real time    0.03
    MIXING:  cpu time    0.00: real time    0.00
    --------------------------------------------
      LOOP:  cpu time    0.15: real time    0.16

 eigenvalue-minimisations  :    96
 total energy-change (2. order) : 0.1001650E+01  (-0.3198134E-01)
 number of electron      31.9999999 magnetization 
 augmentation part       -1.7684002 magnetization 

 Broyden mixing:
  rms(total) = 0.47399E+00    rms(broyden)= 0.47399E+00
  rms(prec ) = 0.91064E+00
  weight for this iteration     100.00

 eigenvalues of (default mixing * dielectric matrix)
  average eigenvalue GAMMA=   2.4573
  2.4573

 Free energy of the ion-electron system (eV)
  ---------------------------------------------------
  alpha Z        PSCENC =        12.68944982
  Ewald energy   TEWEN  =      -907.56842050
  -1/2 Hartree   DENC   =       -54.68195969
  -exchange  EXHF       =         0.00000000
  -V(xc)+E(xc)   XCENC  =       -75.44945098
  PAW double counting   =       286.06020461     -144.35850020
  entropy T*S    EENTRO =         0.00000000
  eigenvalues    EBANDS =        23.31807433
  atomic energy  EATOM  =       826.37398168
  ---------------------------------------------------
  free energy    TOTEN  =       -33.61662093 eV

  energy without entropy =      -33.61662093  energy(sigma->0) =      -33.61662093


--------------------------------------------------------------------------------------------------------




 average (electrostatic) potential at core
  the test charge radii are     0.9892
  (the norm of the test charge is              1.0000)
       1 -83.8333       2 -83.8321       3 -83.8333       4 -83.8352       5 -83.8318
       6 -83.8316       7 -83.8329       8 -83.8324
 
 
 
 E-fermi :   5.5484     XC(G=0):  -9.4504     alpha+bet :-11.7379


 k-point   1 :       0.0000    0.0000    0.0000
  band No.  band energies     occupation 
      1      -6.3787      2.00000
      2      -2.3407      2.00000
      3      -2.3369      2.00000
      4      -2.3354      2.00000
      5      -2.3324      2.00000
      6      -2.3257      2.00000
      7      -2.3235      2.00000
      8       2.6357      2.00000
      9       2.6363      2.00000
     10       2.6369      2.00000
     11       2.6393      2.00000
     12       2.6406      2.00000
     13       2.6436      2.00000
     14       5.3936      2.00000
     15       5.4009      2.00000
     16       5.4055      2.00000
     17       6.2625      0.00000
     18       6.2638      0.00000
     19       6.2648      0.00000
     20       6.2684      0.00000
     21       6.2706      0.00000
     22       6.2757      0.00000
     23       8.0537      0.00000
     24       8.0564      0.00000
     25       8.0606      0.00000
     26       8.4862      0.00000
     27      13.3049      0.00000
     28      13.3568      0.00000
     29      13.3569      0.00000
     30      15.3737      0.00000
     31      15.3792      0.00000
     32      15.3801      0.00000
     33      15.3826      0.00000
     34      15.3837      0.00000
     35      15.3862      0.00000
     36      16.5374      0.00000
     37      16.5409      0.00000
     38      16.5424      0.00000
     39      16.5482      0.00000
     40      16.5509      0.00000
     41      16.5564      0.00000
     42      16.7454      0.00000
     43      16.7482      0.00000
     44      16.7528      0.00000
     45      18.1595      0.00000
     46      18.1626      0.00000
     47      18.1695      0.00000
     48      18.1733      0.00000


--------------------------------------------------------------------------------------------------------


 soft charge-density along one line, spin component           1
         0         1         2         3         4         5         6         7         8         9
 total charge-density along one line
 
 pseudopotential strength for first ion, spin component:           1
 18.635  -0.001   0.000   0.000   0.000   0.000   0.000   0.000
 -0.001   0.006   0.000   0.000   0.000   0.000   0.000   0.000
  0.000   0.000   4.221   0.000   0.000  -0.004   0.000   0.000
  0.000   0.000   0.000   4.221   0.000   0.000  -0.004   0.000
  0.000   0.000   0.000   0.000   4.221   0.000   0.000  -0.004
  0.000   0.000  -0.004   0.000   0.000   0.005   0.000   0.000
  0.000   0.000   0.000  -0.004   0.000   0.000   0.005   0.000
  0.000   0.000   0.000   0.000  -0.004   0.000   0.000   0.005
 total augmentation occupancy for first ion, spin component:           1
  1.351  -1.091   0.000   0.001  -0.001  -0.001  -0.002   0.000
 -1.091   0.998  -0.001   0.000   0.000   0.001   0.001   0.000
  0.000  -0.001   1.147   0.000   0.001  -0.783   0.000  -0.001
  0.001   0.000   0.000   1.146   0.000   0.000  -0.782   0.001
 -0.001   0.000   0.001   0.000   1.147  -0.001   0.001  -0.782
 -0.001   0.001  -0.783   0.000  -0.001   0.609   0.000   0.001
 -0.002   0.001   0.000  -0.782   0.001   0.000   0.608  -0.001
  0.000   0.000  -0.001   0.001  -0.782   0.001  -0.001   0.608


----------------------------------------- Iteration    1(   7)  ---------------------------------------


    POTLOK:  cpu time    0.02: real time    0.02
    SETDIJ:  cpu time    0.02: real time    0.02
    EDDIAG:  cpu time    0.02: real time    0.02
  RMM-DIIS:  cpu time    0.04: real time    0.04
    ORTHCH:  cpu time    0.01: real time    0.01
       DOS:  cpu time    0.00: real time    0.00
    CHARGE:  cpu time    0.02: real time    0.02
    MIXING:  cpu time    0.00: real time    0.00
    --------------------------------------------
      LOOP:  cpu time    0.13: real time    0.14

 eigenvalue-minimisations  :    96
 total energy-change (2. order) : 0.4246153E+00  (-0.7387975E-01)
 number of electron      31.9999999 magnetization 
 augmentation part       -1.7214465 magnetization 

 Broyden mixing:
  rms(total) = 0.46269E-01    rms(broyden)= 0.46259E-01
  rms(prec ) = 0.78488E-01
  weight for this iteration     100.00

 eigenvalues of (default mixing * dielectric matrix)
  average eigenvalue GAMMA=   2.5304
  2.5304  2.5304

 Free energy of the ion-electron system (eV)
  ---------------------------------------------------
  alpha Z        PSCENC =        12.68944982
  Ewald energy   TEWEN  =      -907.56842050
  -1/2 Hartree   DENC   =       -70.51219803
  -exchange  EXHF       =         0.00000000
  -V(xc)+E(xc)   XCENC  =       -73.00938799
  PAW double counting   =       313.72271674     -172.73467802
  entropy T*S    EENTRO =         0.00000000
  eigenvalues    EBANDS =        37.84653066
  atomic energy  EATOM  =       826.37398168
  ---------------------------------------------------
  free energy    TOTEN  =       -33.19200564 eV

  energy without entropy =      -33.19200564  energy(sigma->0) =      -33.19200564


--------------------------------------------------------------------------------------------------------




 average (electrostatic) potential at core
  the test charge radii are     0.9892
  (the norm of the test charge is              1.0000)
       1 -83.1456       2 -83.1452       3 -83.1460       4 -83.1471       5 -83.1451
       6 -83.1446       7 -83.1455       8 -83.1455
 
 
 
 E-fermi :   6.0966     XC(G=0):  -9.2018     alpha+bet :-11.7379


 k-point   1 :       0.0000    0.0000    0.0000
  band No.  band energies     occupation 
      1      -5.9621      2.00000
      2      -1.8731      2.00000
      3      -1.8702      2.00000
      4      -1.8683      2.00000
      5      -1.8661      2.00000
      6      -1.8602      2.00000
      7      -1.8582      2.00000
      8       3.0486      2.00000
      9       3.0491      2.00000
     10       3.0494      2.00000
     11       3.0519      2.00000
     12       3.0531      2.00000
     13       3.0555      2.00000
     14       5.9183      2.00000
     15       5.9255      2.00000
     16       5.9299      2.00000
     17       6.5215      0.00000
     18       6.5228      0.00000
     19       6.5235      0.00000
     20       6.5266      0.00000
     21       6.5287      0.00000
     22       6.5329      0.00000
     23       8.3788      0.00000
     24       8.3815      0.00000
     25       8.3858      0.00000
     26       9.0452      0.00000
     27      13.6012      0.00000
     28      13.6204      0.00000
     29      13.6204      0.00000
     30      15.8242      0.00000
     31      15.8293      0.00000
     32      15.8301      0.00000
     33      15.8324      0.00000
     34      15.8334      0.00000
     35      15.8356      0.00000
     36      16.8999      0.00000
     37      16.9027      0.00000
     38      16.9078      0.00000
     39      16.9578      0.00000
     40      16.9608      0.00000
     41      16.9619      0.00000
     42      16.9671      0.00000
     43      16.9695      0.00000
     44      16.9745      0.00000
     45      18.6522      0.00000
     46      18.6628      0.00000
     47      18.6705      0.00000
     48      18.6747      0.00000


--------------------------------------------------------------------------------------------------------


 soft charge-density along one line, spin component           1
         0         1         2         3         4         5         6         7         8         9
 total charge-density along one line
 
 pseudopotential strength for first ion, spin component:           1
 18.596  -0.001   0.000   0.000   0.000   0.000   0.000   0.000
 -0.001   0.006   0.000   0.000   0.000   0.000   0.000   0.000
  0.000   0.000   4.227   0.000   0.000  -0.005   0.000   0.000
  0.000   0.000   0.000   4.227   0.000   0.000  -0.005   0.000
  0.000   0.000   0.000   0.000   4.227   0.000   0.000  -0.005
  0.000   0.000  -0.005   0.000   0.000   0.005   0.000   0.000
  0.000   0.000   0.000  -0.005   0.000   0.000   0.005   0.000
  0.000   0.000   0.000   0.000  -0.005   0.000   0.000   0.005
 total augmentation occupancy for first ion, spin component:           1
  1.315  -1.112   0.001   0.001  -0.001  -0.001  -0.002   0.001
 -1.112   1.059   0.000   0.000   0.000   0.001   0.001   0.000
  0.001   0.000   1.122  -0.001   0.001  -0.805   0.000  -0.001
  0.001   0.000  -0.001   1.122   0.001   0.000  -0.805   0.000
 -0.001   0.000   0.001   0.001   1.122  -0.001   0.000  -0.805
 -0.001   0.001  -0.805   0.000  -0.001   0.653   0.000   0.001
 -0.002   0.001   0.000  -0.805   0.000   0.000   0.651  -0.001
  0.001   0.000  -0.001   0.000  -0.805   0.001  -0.001   0.652


----------------------------------------- Iteration    1(   8)  ---------------------------------------


    POTLOK:  cpu time    0.02: real time    0.02
    SETDIJ:  cpu time    0.02: real time    0.02
    EDDIAG:  cpu time    0.02: real time    0.02
  RMM-DIIS:  cpu time    0.03: real time    0.03
    ORTHCH:  cpu time    0.01: real time    0.01
       DOS:  cpu time    0.00: real time    0.00
    CHARGE:  cpu time    0.02: real time    0.02
    MIXING:  cpu time    0.00: real time    0.00
    --------------------------------------------
      LOOP:  cpu time    0.12: real time    0.12

 eigenvalue-minimisations  :    96
 total energy-change (2. order) :-0.3197513E-01  (-0.2163642E-02)
 number of electron      31.9999999 magnetization 
 augmentation part       -1.7275488 magnetization 

 Broyden mixing:
  rms(total) = 0.75102E-02    rms(broyden)= 0.75097E-02
  rms(prec ) = 0.17997E-01
  weight for this iteration     100.00

 eigenvalues of (default mixing * dielectric matrix)
  average eigenvalue GAMMA=   2.1176
  1.2638  2.8604  2.2286

 Free energy of the ion-electron system (eV)
  ---------------------------------------------------
  alpha Z        PSCENC =        12.68944982
  Ewald energy   TEWEN  =      -907.56842050
  -1/2 Hartree   DENC   =       -70.39579404
  -exchange  EXHF       =         0.00000000
  -V(xc)+E(xc)   XCENC  =       -72.96596377
  PAW double counting   =       307.35599757     -166.18302156
  entropy T*S    EENTRO =         0.00000000
  eigenvalues    EBANDS =        37.46979004
  atomic energy  EATOM  =       826.37398168
  ---------------------------------------------------
  free energy    TOTEN  =       -33.22398077 eV

  energy without entropy =      -33.22398077  energy(sigma->0) =      -33.22398077


--------------------------------------------------------------------------------------------------------




 average (electrostatic) potential at core
  the test charge radii are     0.9892
  (the norm of the test charge is              1.0000)
       1 -83.2492       2 -83.2475       3 -83.2495       4 -83.2524       5 -83.2472
       6 -83.2466       7 -83.2487       8 -83.2481
 
 
 
 E-fermi :   6.0357     XC(G=0):  -9.1504     alpha+bet :-11.7379


 k-point   1 :       0.0000    0.0000    0.0000
  band No.  band energies     occupation 
      1      -5.9632      2.00000
      2      -1.8855      2.00000
      3      -1.8819      2.00000
      4      -1.8803      2.00000
      5      -1.8777      2.00000
      6      -1.8712      2.00000
      7      -1.8691      2.00000
      8       3.0368      2.00000
      9       3.0374      2.00000
     10       3.0378      2.00000
     11       3.0405      2.00000
     12       3.0417      2.00000
     13       3.0443      2.00000
     14       5.9021      2.00000
     15       5.9093      2.00000
     16       5.9138      2.00000
     17       6.5721      0.00000
     18       6.5734      0.00000
     19       6.5742      0.00000
     20       6.5775      0.00000
     21       6.5798      0.00000
     22       6.5842      0.00000
     23       8.3681      0.00000
     24       8.3707      0.00000
     25       8.3750      0.00000
     26       9.0380      0.00000
     27      13.6064      0.00000
     28      13.6064      0.00000
     29      13.7783      0.00000
     30      15.8093      0.00000
     31      15.8148      0.00000
     32      15.8155      0.00000
     33      15.8176      0.00000
     34      15.8187      0.00000
     35      15.8211      0.00000
     36      16.9366      0.00000
     37      16.9395      0.00000
     38      16.9448      0.00000
     39      16.9641      0.00000
     40      16.9671      0.00000
     41      16.9682      0.00000
     42      16.9736      0.00000
     43      16.9761      0.00000
     44      16.9813      0.00000
     45      18.6875      0.00000
     46      18.7003      0.00000
     47      18.7082      0.00000
     48      18.7132      0.00000


--------------------------------------------------------------------------------------------------------


 soft charge-density along one line, spin component           1
         0         1         2         3         4         5         6         7         8         9
 total charge-density along one line
 
 pseudopotential strength for first ion, spin component:           1
 18.599  -0.001   0.000   0.000   0.000   0.000   0.000   0.000
 -0.001   0.006   0.000   0.000   0.000   0.000   0.000   0.000
  0.000   0.000   4.224   0.000   0.000  -0.005   0.000   0.000
  0.000   0.000   0.000   4.224   0.000   0.000  -0.005   0.000
  0.000   0.000   0.000   0.000   4.224   0.000   0.000  -0.005
  0.000   0.000  -0.005   0.000   0.000   0.005   0.000   0.000
  0.000   0.000   0.000  -0.005   0.000   0.000   0.005   0.000
  0.000   0.000   0.000   0.000  -0.005   0.000   0.000   0.005
 total augmentation occupancy for first ion, spin component:           1
  1.320  -1.092   0.001   0.001  -0.001  -0.001  -0.002   0.001
 -1.092   1.021   0.000   0.000   0.000   0.001   0.001  -0.001
  0.001   0.000   1.124   0.000   0.001  -0.801   0.000  -0.001
  0.001   0.000   0.000   1.123   0.001   0.000  -0.801   0.001
 -0.001   0.000   0.001   0.001   1.123  -0.001   0.000  -0.801
 -0.001   0.001  -0.801   0.000  -0.001   0.648   0.000   0.001
 -0.002   0.001   0.000  -0.801   0.000   0.000   0.647  -0.001
  0.001  -0.001  -0.001   0.001  -0.801   0.001  -0.001   0.647


----------------------------------------- Iteration    1(   9)  ---------------------------------------


    POTLOK:  cpu time    0.02: real time    0.02
    SETDIJ:  cpu time    0.02: real time    0.02
    EDDIAG:  cpu time    0.02: real time    0.02
  RMM-DIIS:  cpu time    0.04: real time    0.04
    ORTHCH:  cpu time    0.01: real time    0.01
       DOS:  cpu time    0.00: real time    0.00
    CHARGE:  cpu time    0.02: real time    0.02
    MIXING:  cpu time    0.00: real time    0.00
    --------------------------------------------
      LOOP:  cpu time    0.14: real time    0.14

 eigenvalue-minimisations  :   108
 total energy-change (2. order) :-0.1123912E-02  (-0.1256474E-03)
 number of electron      31.9999999 magnetization 
 augmentation part       -1.7274636 magnetization 

 Broyden mixing:
  rms(total) = 0.41728E-02    rms(broyden)= 0.41727E-02
  rms(prec ) = 0.68540E-02
  weight for this iteration     100.00

 eigenvalues of (default mixing * dielectric matrix)
  average eigenvalue GAMMA=   2.3097
  0.9893  3.2701  2.6922  2.2871

 Free energy of the ion-electron system (eV)
  ---------------------------------------------------
  alpha Z        PSCENC =        12.68944982
  Ewald energy   TEWEN  =      -907.56842050
  -1/2 Hartree   DENC   =       -70.79215578
  -exchange  EXHF       =         0.00000000
  -V(xc)+E(xc)   XCENC  =       -72.90682424
  PAW double counting   =       307.71233376     -166.54991637
  entropy T*S    EENTRO =         0.00000000
  eigenvalues    EBANDS =        37.81644696
  atomic energy  EATOM  =       826.37398168
  ---------------------------------------------------
  free energy    TOTEN  =       -33.22510468 eV

  energy without entropy =      -33.22510468  energy(sigma->0) =      -33.22510468


--------------------------------------------------------------------------------------------------------




 average (electrostatic) potential at core
  the test charge radii are     0.9892
  (the norm of the test charge is              1.0000)
       1 -83.2348       2 -83.2334       3 -83.2349       4 -83.2371       5 -83.2331
       6 -83.2329       7 -83.2344       8 -83.2338
 
 
 
 E-fermi :   6.0505     XC(G=0):  -9.1363     alpha+bet :-11.7379


 k-point   1 :       0.0000    0.0000    0.0000
  band No.  band energies     occupation 
      1      -5.9520      2.00000
      2      -1.8740      2.00000
      3      -1.8707      2.00000
      4      -1.8691      2.00000
      5      -1.8665      2.00000
      6      -1.8603      2.00000
      7      -1.8582      2.00000
      8       3.0468      2.00000
      9       3.0473      2.00000
     10       3.0476      2.00000
     11       3.0503      2.00000
     12       3.0514      2.00000
     13       3.0540      2.00000
     14       5.9142      2.00000
     15       5.9214      2.00000
     16       5.9259      2.00000
     17       6.5860      0.00000
     18       6.5874      0.00000
     19       6.5882      0.00000
     20       6.5915      0.00000
     21       6.5938      0.00000
     22       6.5983      0.00000
     23       8.3757      0.00000
     24       8.3784      0.00000
     25       8.3827      0.00000
     26       9.0525      0.00000
     27      13.6116      0.00000
     28      13.6117      0.00000
     29      13.8103      0.00000
     30      15.8199      0.00000
     31      15.8252      0.00000
     32      15.8260      0.00000
     33      15.8282      0.00000
     34      15.8293      0.00000
     35      15.8315      0.00000
     36      16.9466      0.00000
     37      16.9495      0.00000
     38      16.9548      0.00000
     39      16.9763      0.00000
     40      16.9792      0.00000
     41      16.9803      0.00000
     42      16.9857      0.00000
     43      16.9881      0.00000
     44      16.9933      0.00000
     45      18.7054      0.00000
     46      18.7182      0.00000
     47      18.7265      0.00000
     48      18.7317      0.00000


--------------------------------------------------------------------------------------------------------


 soft charge-density along one line, spin component           1
         0         1         2         3         4         5         6         7         8         9
 total charge-density along one line
 
 pseudopotential strength for first ion, spin component:           1
 18.598  -0.001   0.000   0.000   0.000   0.000   0.000   0.000
 -0.001   0.006   0.000   0.000   0.000   0.000   0.000   0.000
  0.000   0.000   4.224   0.000   0.000  -0.005   0.000   0.000
  0.000   0.000   0.000   4.224   0.000   0.000  -0.005   0.000
  0.000   0.000   0.000   0.000   4.224   0.000   0.000  -0.005
  0.000   0.000  -0.005   0.000   0.000   0.005   0.000   0.000
  0.000   0.000   0.000  -0.005   0.000   0.000   0.005   0.000
  0.000   0.000   0.000   0.000  -0.005   0.000   0.000   0.005
 total augmentation occupancy for first ion, spin component:           1
  1.320  -1.087   0.001   0.001  -0.001  -0.001  -0.002   0.001
 -1.087   1.013   0.000   0.000   0.000   0.001   0.001  -0.001
  0.001   0.000   1.123   0.000   0.001  -0.801   0.000  -0.001
  0.001   0.000   0.000   1.122   0.001   0.000  -0.800   0.001
 -0.001   0.000   0.001   0.001   1.123  -0.001   0.000  -0.801
 -0.001   0.001  -0.801   0.000  -0.001   0.648   0.000   0.001
 -0.002   0.001   0.000  -0.800   0.000   0.000   0.647  -0.001
  0.001  -0.001  -0.001   0.001  -0.801   0.001  -0.001   0.647


----------------------------------------- Iteration    1(  10)  ---------------------------------------


    POTLOK:  cpu time    0.02: real time    0.02
    SETDIJ:  cpu time    0.02: real time    0.02
    EDDIAG:  cpu time    0.02: real time    0.02
  RMM-DIIS:  cpu time    0.04: real time    0.04
    ORTHCH:  cpu time    0.01: real time    0.01
       DOS:  cpu time    0.00: real time    0.00
    CHARGE:  cpu time    0.02: real time    0.02
    MIXING:  cpu time    0.00: real time    0.00
    --------------------------------------------
      LOOP:  cpu time    0.14: real time    0.14

 eigenvalue-minimisations  :   104
 total energy-change (2. order) :-0.1873055E-03  (-0.2540034E-04)
 number of electron      31.9999999 magnetization 
 augmentation part       -1.7273312 magnetization 

 Broyden mixing:
  rms(total) = 0.51681E-03    rms(broyden)= 0.51642E-03
  rms(prec ) = 0.99963E-03
  weight for this iteration     100.00

 eigenvalues of (default mixing * dielectric matrix)
  average eigenvalue GAMMA=   2.0316
  3.0882  2.6184  2.1707  0.9793  1.3016

 Free energy of the ion-electron system (eV)
  ---------------------------------------------------
  alpha Z        PSCENC =        12.68944982
  Ewald energy   TEWEN  =      -907.56842050
  -1/2 Hartree   DENC   =       -70.84695131
  -exchange  EXHF       =         0.00000000
  -V(xc)+E(xc)   XCENC  =       -72.90974449
  PAW double counting   =       307.80460560     -166.64858621
  entropy T*S    EENTRO =         0.00000000
  eigenvalues    EBANDS =        37.88037343
  atomic energy  EATOM  =       826.37398168
  ---------------------------------------------------
  free energy    TOTEN  =       -33.22529199 eV

  energy without entropy =      -33.22529199  energy(sigma->0) =      -33.22529199


--------------------------------------------------------------------------------------------------------




 average (electrostatic) potential at core
  the test charge radii are     0.9892
  (the norm of the test charge is              1.0000)
       1 -83.2259       2 -83.2248       3 -83.2259       4 -83.2275       5 -83.2246
       6 -83.2244       7 -83.2255       8 -83.2251
 
 
 
 E-fermi :   6.0551     XC(G=0):  -9.1306     alpha+bet :-11.7379


 k-point   1 :       0.0000    0.0000    0.0000
  band No.  band energies     occupation 
      1      -5.9495      2.00000
      2      -1.8717      2.00000
      3      -1.8686      2.00000
      4      -1.8669      2.00000
      5      -1.8644      2.00000
      6      -1.8583      2.00000
      7      -1.8563      2.00000
      8       3.0486      2.00000
      9       3.0491      2.00000
     10       3.0494      2.00000
     11       3.0520      2.00000
     12       3.0531      2.00000
     13       3.0557      2.00000
     14       5.9164      2.00000
     15       5.9236      2.00000
     16       5.9281      2.00000
     17       6.5915      0.00000
     18       6.5928      0.00000
     19       6.5937      0.00000
     20       6.5969      0.00000
     21       6.5993      0.00000
     22       6.6037      0.00000
     23       8.3767      0.00000
     24       8.3794      0.00000
     25       8.3837      0.00000
     26       9.0563      0.00000
     27      13.6117      0.00000
     28      13.6117      0.00000
     29      13.8266      0.00000
     30      15.8219      0.00000
     31      15.8270      0.00000
     32      15.8278      0.00000
     33      15.8302      0.00000
     34      15.8312      0.00000
     35      15.8334      0.00000
     36      16.9507      0.00000
     37      16.9536      0.00000
     38      16.9589      0.00000
     39      16.9792      0.00000
     40      16.9820      0.00000
     41      16.9831      0.00000
     42      16.9884      0.00000
     43      16.9908      0.00000
     44      16.9959      0.00000
     45      18.7131      0.00000
     46      18.7256      0.00000
     47      18.7336      0.00000
     48      18.7386      0.00000


--------------------------------------------------------------------------------------------------------


 soft charge-density along one line, spin component           1
         0         1         2         3         4         5         6         7         8         9
 total charge-density along one line
 
 pseudopotential strength for first ion, spin component:           1
 18.597  -0.001   0.000   0.000   0.000   0.000   0.000   0.000
 -0.001   0.006   0.000   0.000   0.000   0.000   0.000   0.000
  0.000   0.000   4.224   0.000   0.000  -0.005   0.000   0.000
  0.000   0.000   0.000   4.224   0.000   0.000  -0.005   0.000
  0.000   0.000   0.000   0.000   4.224   0.000   0.000  -0.005
  0.000   0.000  -0.005   0.000   0.000   0.005   0.000   0.000
  0.000   0.000   0.000  -0.005   0.000   0.000   0.005   0.000
  0.000   0.000   0.000   0.000  -0.005   0.000   0.000   0.005
 total augmentation occupancy for first ion, spin component:           1
  1.320  -1.087   0.001   0.001  -0.001  -0.001  -0.002   0.001
 -1.087   1.013   0.000   0.000   0.000   0.001   0.001  -0.001
  0.001   0.000   1.123   0.000   0.001  -0.802   0.000  -0.001
  0.001   0.000   0.000   1.122   0.001   0.000  -0.801   0.001
 -0.001   0.000   0.001   0.001   1.123  -0.001   0.000  -0.801
 -0.001   0.001  -0.802   0.000  -0.001   0.648   0.000   0.001
 -0.002   0.001   0.000  -0.801   0.000   0.000   0.648  -0.001
  0.001  -0.001  -0.001   0.001  -0.801   0.001  -0.001   0.648


----------------------------------------- Iteration    1(  11)  ---------------------------------------


    POTLOK:  cpu time    0.02: real time    0.02
    SETDIJ:  cpu time    0.02: real time    0.02
    EDDIAG:  cpu time    0.02: real time    0.02
  RMM-DIIS:  cpu time    0.03: real time    0.03
    ORTHCH:  cpu time    0.01: real time    0.01
       DOS:  cpu time    0.00: real time    0.00
    CHARGE:  cpu time    0.02: real time    0.02
    MIXING:  cpu time    0.00: real time    0.00
    --------------------------------------------
      LOOP:  cpu time    0.12: real time    0.13

 eigenvalue-minimisations  :   116
 total energy-change (2. order) : 0.4218121E-05  (-0.3758035E-06)
 number of electron      31.9999999 magnetization 
 augmentation part       -1.7274367 magnetization 

 Broyden mixing:
  rms(total) = 0.15500E-03    rms(broyden)= 0.15495E-03
  rms(prec ) = 0.29663E-03
  weight for this iteration     100.00

 eigenvalues of (default mixing * dielectric matrix)
  average eigenvalue GAMMA=   2.0014
  3.2102  2.7034  2.0702  2.0702  0.9772  0.9772

 Free energy of the ion-electron system (eV)
  ---------------------------------------------------
  alpha Z        PSCENC =        12.68944982
  Ewald energy   TEWEN  =      -907.56842050
  -1/2 Hartree   DENC   =       -70.82631835
  -exchange  EXHF       =         0.00000000
  -V(xc)+E(xc)   XCENC  =       -72.91103054
  PAW double counting   =       307.73333089     -166.57448552
  entropy T*S    EENTRO =         0.00000000
  eigenvalues    EBANDS =        37.85820475
  atomic energy  EATOM  =       826.37398168
  ---------------------------------------------------
  free energy    TOTEN  =       -33.22528777 eV

  energy without entropy =      -33.22528777  energy(sigma->0) =      -33.22528777


--------------------------------------------------------------------------------------------------------




 average (electrostatic) potential at core
  the test charge radii are     0.9892
  (the norm of the test charge is              1.0000)
       1 -83.2283       2 -83.2270       3 -83.2283       4 -83.2303       5 -83.2267
       6 -83.2265       7 -83.2279       8 -83.2274
 
 
 
 E-fermi :   6.0545     XC(G=0):  -9.1314     alpha+bet :-11.7379


 k-point   1 :       0.0000    0.0000    0.0000
  band No.  band energies     occupation 
      1      -5.9502      2.00000
      2      -1.8726      2.00000
      3      -1.8693      2.00000
      4      -1.8677      2.00000
      5      -1.8652      2.00000
      6      -1.8589      2.00000
      7      -1.8569      2.00000
      8       3.0479      2.00000
      9       3.0484      2.00000
     10       3.0487      2.00000
     11       3.0514      2.00000
     12       3.0525      2.00000
     13       3.0551      2.00000
     14       5.9156      2.00000
     15       5.9228      2.00000
     16       5.9273      2.00000
     17       6.5907      0.00000
     18       6.5921      0.00000
     19       6.5929      0.00000
     20       6.5961      0.00000
     21       6.5985      0.00000
     22       6.6029      0.00000
     23       8.3763      0.00000
     24       8.3789      0.00000
     25       8.3832      0.00000
     26       9.0553      0.00000
     27      13.6114      0.00000
     28      13.6114      0.00000
     29      13.8248      0.00000
     30      15.8211      0.00000
     31      15.8263      0.00000
     32      15.8271      0.00000
     33      15.8294      0.00000
     34      15.8304      0.00000
     35      15.8327      0.00000
     36      16.9502      0.00000
     37      16.9530      0.00000
     38      16.9583      0.00000
     39      16.9785      0.00000
     40      16.9813      0.00000
     41      16.9824      0.00000
     42      16.9877      0.00000
     43      16.9902      0.00000
     44      16.9953      0.00000
     45      18.7151      0.00000
     46      18.7262      0.00000
     47      18.7336      0.00000
     48      18.7381      0.00000


--------------------------------------------------------------------------------------------------------


 soft charge-density along one line, spin component           1
         0         1         2         3         4         5         6         7         8         9
 total charge-density along one line
 
 pseudopotential strength for first ion, spin component:           1
 18.597  -0.001   0.000   0.000   0.000   0.000   0.000   0.000
 -0.001   0.006   0.000   0.000   0.000   0.000   0.000   0.000
  0.000   0.000   4.224   0.000   0.000  -0.005   0.000   0.000
  0.000   0.000   0.000   4.224   0.000   0.000  -0.005   0.000
  0.000   0.000   0.000   0.000   4.224   0.000   0.000  -0.005
  0.000   0.000  -0.005   0.000   0.000   0.005   0.000   0.000
  0.000   0.000   0.000  -0.005   0.000   0.000   0.005   0.000
  0.000   0.000   0.000   0.000  -0.005   0.000   0.000   0.005
 total augmentation occupancy for first ion, spin component:           1
  1.320  -1.087   0.001   0.001  -0.001  -0.001  -0.002   0.001
 -1.087   1.012   0.000   0.000   0.000   0.001   0.001  -0.001
  0.001   0.000   1.123   0.000   0.001  -0.802   0.000  -0.001
  0.001   0.000   0.000   1.122   0.001   0.000  -0.801   0.001
 -0.001   0.000   0.001   0.001   1.123  -0.001   0.000  -0.801
 -0.001   0.001  -0.802   0.000  -0.001   0.648   0.000   0.001
 -0.002   0.001   0.000  -0.801   0.000   0.000   0.648  -0.001
  0.001  -0.001  -0.001   0.001  -0.801   0.001  -0.001   0.648


----------------------------------------- Iteration    1(  12)  ---------------------------------------


    POTLOK:  cpu time    0.02: real time    0.02
    SETDIJ:  cpu time    0.02: real time    0.02
    EDDIAG:  cpu time    0.02: real time    0.02
  RMM-DIIS:  cpu time    0.03: real time    0.03
    ORTHCH:  cpu time    0.01: real time    0.01
       DOS:  cpu time    0.00: real time    0.00
    CHARGE:  cpu time    0.02: real time    0.02
    MIXING:  cpu time    0.00: real time    0.00
    --------------------------------------------
      LOOP:  cpu time    0.12: real time    0.12

 eigenvalue-minimisations  :   127
 total energy-change (2. order) :-0.5077845E-06  (-0.5095978E-07)
 number of electron      31.9999999 magnetization 
 augmentation part       -1.7274262 magnetization 

 Broyden mixing:
  rms(total) = 0.57215E-04    rms(broyden)= 0.57188E-04
  rms(prec ) = 0.84182E-04
  weight for this iteration     100.00

 eigenvalues of (default mixing * dielectric matrix)
  average eigenvalue GAMMA=   1.9895
  3.1961  2.7294  2.4466  2.0551  1.5423  0.9977  0.9593

 Free energy of the ion-electron system (eV)
  ---------------------------------------------------
  alpha Z        PSCENC =        12.68944982
  Ewald energy   TEWEN  =      -907.56842050
  -1/2 Hartree   DENC   =       -70.83038488
  -exchange  EXHF       =         0.00000000
  -V(xc)+E(xc)   XCENC  =       -72.91098650
  PAW double counting   =       307.73882804     -166.58009036
  entropy T*S    EENTRO =         0.00000000
  eigenvalues    EBANDS =        37.86233441
  atomic energy  EATOM  =       826.37398168
  ---------------------------------------------------
  free energy    TOTEN  =       -33.22528828 eV

  energy without entropy =      -33.22528828  energy(sigma->0) =      -33.22528828


--------------------------------------------------------------------------------------------------------




 average (electrostatic) potential at core
  the test charge radii are     0.9892
  (the norm of the test charge is              1.0000)
       1 -83.2278       2 -83.2265       3 -83.2279       4 -83.2300       5 -83.2262
       6 -83.2260       7 -83.2274       8 -83.2269
 
 
 
 E-fermi :   6.0549     XC(G=0):  -9.1312     alpha+bet :-11.7379


 k-point   1 :       0.0000    0.0000    0.0000
  band No.  band energies     occupation 
      1      -5.9500      2.00000
      2      -1.8725      2.00000
      3      -1.8692      2.00000
      4      -1.8675      2.00000
      5      -1.8650      2.00000
      6      -1.8588      2.00000
      7      -1.8567      2.00000
      8       3.0480      2.00000
      9       3.0485      2.00000
     10       3.0488      2.00000
     11       3.0515      2.00000
     12       3.0526      2.00000
[...]
    MIXING:  cpu time    0.00: real time    0.00
    --------------------------------------------
      LOOP:  cpu time    0.16: real time    0.16

 Broyden mixing:
  rms(total) = 0.68009E-02    rms(broyden)= 0.68006E-02
  rms(prec ) = 0.11654E-01
  weight for this iteration     100.00

 eigenvalues of (default mixing * dielectric matrix)
  average eigenvalue GAMMA=   2.0746
  3.0317  2.4870  1.1249  1.6549

 Free energy of the ion-electron system (eV)
  ---------------------------------------------------
  -1/2 Hartree   DENC   =        -4.61505348
  -V(xc)+E(xc)   XCENC  =         0.95004940
  PAW double counting   =         3.09984327       -3.14919757
  entropy T*S    EENTRO =         0.00000000
  eigenvalues    EBANDS =       -24.52808981
  ---------------------------------------------------
  free energy    TOTEN  =       -28.24244819 eV

  energy without entropy =      -28.24244819


----------------------------------------- Iteration    3(   7)  ---------------------------------------


   POT+DIJ:  cpu time    0.08: real time    0.08
    HAMIL1:  cpu time    0.00: real time    0.01
    LRDIAG:  cpu time    0.01: real time    0.01
    LRDIIS:  cpu time    0.02: real time    0.02
    LRDIAG:  cpu time    0.01: real time    0.01
    MIXING:  cpu time    0.00: real time    0.00
    --------------------------------------------
      LOOP:  cpu time    0.15: real time    0.15

 Broyden mixing:
  rms(total) = 0.54226E-03    rms(broyden)= 0.54131E-03
  rms(prec ) = 0.10340E-02
  weight for this iteration     100.00

 eigenvalues of (default mixing * dielectric matrix)
  average eigenvalue GAMMA=   1.9626
  3.0917  2.4061  1.1160  1.6776  1.5218

 Free energy of the ion-electron system (eV)
  ---------------------------------------------------
  -1/2 Hartree   DENC   =        -4.62586681
  -V(xc)+E(xc)   XCENC  =         0.95734290
  PAW double counting   =         3.06423786       -3.11305804
  entropy T*S    EENTRO =         0.00000000
  eigenvalues    EBANDS =       -24.56305209
  ---------------------------------------------------
  free energy    TOTEN  =       -28.28039619 eV

  energy without entropy =      -28.28039619


----------------------------------------- Iteration    3(   8)  ---------------------------------------


   POT+DIJ:  cpu time    0.08: real time    0.08
    HAMIL1:  cpu time    0.00: real time    0.01
    LRDIAG:  cpu time    0.01: real time    0.01
    LRDIIS:  cpu time    0.02: real time    0.02
    LRDIAG:  cpu time    0.01: real time    0.01
    MIXING:  cpu time    0.00: real time    0.00
    --------------------------------------------
      LOOP:  cpu time    0.16: real time    0.16

 Broyden mixing:
  rms(total) = 0.27501E-03    rms(broyden)= 0.27492E-03
  rms(prec ) = 0.40694E-03
  weight for this iteration     100.00

 eigenvalues of (default mixing * dielectric matrix)
  average eigenvalue GAMMA=   1.9191
  3.0866  2.4889  2.0309  1.6684  1.0970  1.1427

 Free energy of the ion-electron system (eV)
  ---------------------------------------------------
  -1/2 Hartree   DENC   =        -4.62942623
  -V(xc)+E(xc)   XCENC  =         0.95827052
  PAW double counting   =         3.06827827       -3.11716619
  entropy T*S    EENTRO =         0.00000000
  eigenvalues    EBANDS =       -24.56403610
  ---------------------------------------------------
  free energy    TOTEN  =       -28.28407972 eV

  energy without entropy =      -28.28407972


----------------------------------------- Iteration    3(   9)  ---------------------------------------


   POT+DIJ:  cpu time    0.08: real time    0.08
    HAMIL1:  cpu time    0.01: real time    0.01
    LRDIAG:  cpu time    0.01: real time    0.01
    LRDIIS:  cpu time    0.02: real time    0.02
    LRDIAG:  cpu time    0.01: real time    0.01
    MIXING:  cpu time    0.00: real time    0.00
    --------------------------------------------
      LOOP:  cpu time    0.16: real time    0.16

 Broyden mixing:
  rms(total) = 0.10535E-03    rms(broyden)= 0.10533E-03
  rms(prec ) = 0.15931E-03
  weight for this iteration     100.00

 eigenvalues of (default mixing * dielectric matrix)
  average eigenvalue GAMMA=   1.8955
  3.1779  2.7386  2.3960  1.6749  1.2872  1.1015  0.8923

 Free energy of the ion-electron system (eV)
  ---------------------------------------------------
  -1/2 Hartree   DENC   =        -4.62908213
  -V(xc)+E(xc)   XCENC  =         0.95820259
  PAW double counting   =         3.07031917       -3.11924236
  entropy T*S    EENTRO =         0.00000000
  eigenvalues    EBANDS =       -24.56430164
  ---------------------------------------------------
  free energy    TOTEN  =       -28.28410436 eV

  energy without entropy =      -28.28410436


----------------------------------------- Iteration    3(  10)  ---------------------------------------


   POT+DIJ:  cpu time    0.08: real time    0.08
    HAMIL1:  cpu time    0.00: real time    0.00
    LRDIAG:  cpu time    0.01: real time    0.01
    LRDIIS:  cpu time    0.02: real time    0.02
    LRDIAG:  cpu time    0.01: real time    0.01
    MIXING:  cpu time    0.00: real time    0.00
    --------------------------------------------
      LOOP:  cpu time    0.15: real time    0.16

 Broyden mixing:
  rms(total) = 0.13814E-04    rms(broyden)= 0.13801E-04
  rms(prec ) = 0.22355E-04
  weight for this iteration     100.00

 eigenvalues of (default mixing * dielectric matrix)
  average eigenvalue GAMMA=   1.8368
  3.1954  2.7728  2.4464  1.6702  1.4319  0.9779  1.1279  1.0721

 Free energy of the ion-electron system (eV)
  ---------------------------------------------------
  -1/2 Hartree   DENC   =        -4.62916854
  -V(xc)+E(xc)   XCENC  =         0.95824409
  PAW double counting   =         3.07149688       -3.12044053
  entropy T*S    EENTRO =         0.00000000
  eigenvalues    EBANDS =       -24.56455286
  ---------------------------------------------------
  free energy    TOTEN  =       -28.28442095 eV

  energy without entropy =      -28.28442095


----------------------------------------- Iteration    3(  11)  ---------------------------------------


   POT+DIJ:  cpu time    0.08: real time    0.08
    HAMIL1:  cpu time    0.00: real time    0.01
    LRDIAG:  cpu time    0.01: real time    0.01
    LRDIIS:  cpu time    0.02: real time    0.02
    LRDIAG:  cpu time    0.01: real time    0.01
    MIXING:  cpu time    0.00: real time    0.00
    --------------------------------------------
      LOOP:  cpu time    0.16: real time    0.16

 Broyden mixing:
  rms(total) = 0.39705E-05    rms(broyden)= 0.39685E-05
  rms(prec ) = 0.57719E-05
  weight for this iteration     100.00

 eigenvalues of (default mixing * dielectric matrix)
  average eigenvalue GAMMA=   1.8837
  3.2077  2.7865  2.4379  2.3560  1.6707  1.3818  1.1083  0.9956  1.0088

 Free energy of the ion-electron system (eV)
  ---------------------------------------------------
  -1/2 Hartree   DENC   =        -4.62917534
  -V(xc)+E(xc)   XCENC  =         0.95824054
  PAW double counting   =         3.07156631       -3.12051106
  entropy T*S    EENTRO =         0.00000000
  eigenvalues    EBANDS =       -24.56453071
  ---------------------------------------------------
  free energy    TOTEN  =       -28.28441027 eV

  energy without entropy =      -28.28441027


----------------------------------------- Iteration    3(  12)  ---------------------------------------


   POT+DIJ:  cpu time    0.08: real time    0.08
    HAMIL1:  cpu time    0.01: real time    0.01
    LRDIAG:  cpu time    0.01: real time    0.01
    LRDIIS:  cpu time    0.02: real time    0.02
    LRDIAG:  cpu time    0.01: real time    0.01
    MIXING:  cpu time    0.00: real time    0.00
    --------------------------------------------
      LOOP:  cpu time    0.16: real time    0.16

 Broyden mixing:
  rms(total) = 0.10578E-05    rms(broyden)= 0.10574E-05
  rms(prec ) = 0.16557E-05
  weight for this iteration     100.00

 eigenvalues of (default mixing * dielectric matrix)
  average eigenvalue GAMMA=   1.8473
  3.2040  2.8232  2.4687  2.4687  1.6711  1.3610  1.3610  1.0034  1.0034  1.1089

 Free energy of the ion-electron system (eV)
  ---------------------------------------------------
  -1/2 Hartree   DENC   =        -4.62917750
  -V(xc)+E(xc)   XCENC  =         0.95824088
  PAW double counting   =         3.07148372       -3.12042711
  entropy T*S    EENTRO =         0.00000000
  eigenvalues    EBANDS =       -24.56453273
  ---------------------------------------------------
  free energy    TOTEN  =       -28.28441275 eV

  energy without entropy =      -28.28441275


----------------------------------------- Iteration    3(  13)  ---------------------------------------


   POT+DIJ:  cpu time    0.08: real time    0.08
    HAMIL1:  cpu time    0.00: real time    0.01
    LRDIAG:  cpu time    0.01: real time    0.01
    LRDIIS:  cpu time    0.02: real time    0.02
    LRDIAG:  cpu time    0.01: real time    0.01
    MIXING:  cpu time    0.00: real time    0.00
    --------------------------------------------
      LOOP:  cpu time    0.15: real time    0.16

 Broyden mixing:
  rms(total) = 0.28408E-06    rms(broyden)= 0.28402E-06
  rms(prec ) = 0.56131E-06
  weight for this iteration     100.00

 eigenvalues of (default mixing * dielectric matrix)
  average eigenvalue GAMMA=   1.8277
  3.2099  2.8424  2.6256  2.4458  1.6712  1.7984  1.3745  1.1182  0.9862  1.0164
  1.0164

 Free energy of the ion-electron system (eV)
  ---------------------------------------------------
  -1/2 Hartree   DENC   =        -4.62917759
  -V(xc)+E(xc)   XCENC  =         0.95824068
  PAW double counting   =         3.07146367       -3.12040668
  entropy T*S    EENTRO =         0.00000000
  eigenvalues    EBANDS =       -24.56453197
  ---------------------------------------------------
  free energy    TOTEN  =       -28.28441190 eV

  energy without entropy =      -28.28441190


------------------------ aborting loop because EDIFF is reached ----------------------------------------


 change of polarisation eV/A/(eV/A) component  3 :     0.080    -0.117    50.529
 dielectric tensor                  component  3 :     0.088    -0.129    56.865


--------------------------------------------------------------------------------------------------------


    FORLOC:  cpu time    0.00: real time    0.00
    FORNL :  cpu time    0.09: real time    0.09
    STRESS:  cpu time    0.30: real time    0.30
    FORCOR:  cpu time    0.02: real time    0.02
    FORLOC:  cpu time    0.00: real time    0.00
    FORNL :  cpu time    0.09: real time    0.09
    STRESS:  cpu time    0.31: real time    0.31
    FORCOR:  cpu time    0.02: real time    0.02
    FORNLD:  cpu time    0.01: real time    0.01

 PIEZOELECTRIC TENSOR FIELD DIRECTION 3  (e Angst)
 -----------------------------------------------------------------------------
    -0.00400  0.00274  0.00564           (  0.00004  0.00006  0.00005)
     0.00274  0.00224  0.00665           (  0.00006  0.00001  0.00011)
     0.00564  0.00665 -0.00527           (  0.00005  0.00011 -0.00003)

 PIEZOELECTRIC TENSOR FIELD DIRECTION 3  (C/m^2)
 -----------------------------------------------------------------------------
    -0.00039  0.00027  0.00055
     0.00027  0.00022  0.00065
     0.00055  0.00065 -0.00052


      POSITION         DIRECTION 3           BORN EFFECTIVE CHARGE    (rigid.aug.   ionic)
 -----------------------------------------------------------------------------------------
      0.00107      5.46645      0.00232    -0.13143  0.01263 -5.76258 (  0.21593  4.00000)
      1.36395      1.36982      1.36677    -0.03737 -0.03444 -5.78051 (  0.21592  4.00000)
      2.73732      2.73427      0.00147     0.04670 -0.02605 -5.75826 (  0.21593  4.00000)
      4.10177      4.10397      1.36941    -0.03472  0.12325 -5.71946 (  0.21595  4.00000)
      2.73647      0.00191      2.73515     0.12331  0.03049 -5.79948 (  0.21592  4.00000)
      4.10441      1.36765      4.10607     0.03274 -0.11597 -5.81394 (  0.21592  4.00000)
      0.00015      2.73857      2.73489    -0.04861 -0.00064 -5.77985 (  0.21593  4.00000)
      1.37107      4.10239      4.10232     0.02946  0.03999 -5.79346 (  0.21592  4.00000)
 -----------------------------------------------------------------------------------------
    total drift (improves with k-points):  -0.01992  0.02926-46.20754




--------------------------------------------------------------------------------------------------------


  LATTYP: Found a simple cubic cell.
 ALAT       =     5.4700000000
  
  Lattice vectors:
  
 A1 = (   5.4700000000,   0.0000000000,   0.0000000000)
 A2 = (   0.0000000000,   5.4700000000,   0.0000000000)
 A3 = (   0.0000000000,   0.0000000000,   5.4700000000)


Analysis of symmetry for initial positions (statically):
=====================================================================
 Subroutine PRICEL returns:
 Original cell was already a primitive cell.
 

 Routine SETGRP: Setting up the symmetry group for a 
 simple cubic supercell.


 Subroutine GETGRP returns: Found  1 space group operations
 (whereof  1 operations were pure point group operations)
 out of a pool of 48 trial point group operations.


The static configuration has the point symmetry C_1 .


Analysis of symmetry for dynamics (positions and initial velocities):
=====================================================================
 Subroutine PRICEL returns:
 Original cell was already a primitive cell.
 

 Routine SETGRP: Setting up the symmetry group for a 
 simple cubic supercell.


 Subroutine GETGRP returns: Found  1 space group operations
 (whereof  1 operations were pure point group operations)
 out of a pool of 48 trial point group operations.


The dynamic configuration has the point symmetry C_1 .


 MACROSCOPIC STATIC DIELECTRIC TENSOR (including local field effects in DFT)
 ------------------------------------------------------
          56.848111     0.028203     0.088362
           0.028202    56.843952    -0.129081
           0.088360    -0.129082    56.865179
 ------------------------------------------------------



--------------------------------------------------------------------------------------------------------


  LATTYP: Found a simple cubic cell.
 ALAT       =     5.4700000000
  
  Lattice vectors:
  
 A1 = (   5.4700000000,   0.0000000000,   0.0000000000)
 A2 = (   0.0000000000,   5.4700000000,   0.0000000000)
 A3 = (   0.0000000000,   0.0000000000,   5.4700000000)


Analysis of symmetry for initial positions (statically):
=====================================================================
 Subroutine PRICEL returns:
 Original cell was already a primitive cell.
 

 Routine SETGRP: Setting up the symmetry group for a 
 simple cubic supercell.


 Subroutine GETGRP returns: Found  1 space group operations
 (whereof  1 operations were pure point group operations)
 out of a pool of 48 trial point group operations.


The static configuration has the point symmetry C_1 .


Analysis of symmetry for dynamics (positions and initial velocities):
=====================================================================
 Subroutine PRICEL returns:
 Original cell was already a primitive cell.
 

 Routine SETGRP: Setting up the symmetry group for a 
 simple cubic supercell.


 Subroutine GETGRP returns: Found  1 space group operations
 (whereof  1 operations were pure point group operations)
 out of a pool of 48 trial point group operations.


The dynamic configuration has the point symmetry C_1 .
 
 KPOINTS: Automatic mesh                          

Automatic generation of k-mesh.
Space group operators:
 irot       det(A)        alpha          n_x          n_y          n_z        tau_x        tau_y        tau_z
    1     1.000000     0.000001     1.000000     0.000000     0.000000     0.000000     0.000000     0.000000
 
 Subroutine IBZKPT returns following result:
 ===========================================
 
 Found      1 irreducible k-points:
 
 Following reciprocal coordinates:
            Coordinates               Weight
  0.000000  0.000000  0.000000      1.000000
 
 Following cartesian coordinates:
            Coordinates               Weight
  0.000000  0.000000  0.000000      1.000000
 


--------------------------------------------------------------------------------------------------------




 MACROSCOPIC STATIC DIELECTRIC TENSOR (including local field effects in DFT)
 ------------------------------------------------------
          56.848111     0.028203     0.088362
           0.028202    56.843952    -0.129081
           0.088360    -0.129082    56.865179
 ------------------------------------------------------


 PIEZOELECTRIC TENSOR  for field in x, y, z        (e  Angst)
          XX          YY          ZZ          XY          YZ          ZX
  --------------------------------------------------------------------------------
  x    -0.00063    -0.00441     0.00415    -0.00173     0.00056    -0.00387
  y     0.00191    -0.00166    -0.00111     0.00239     0.00107     0.00105
  z    -0.00400     0.00224    -0.00527     0.00274     0.00665     0.00564

 PIEZOELECTRIC TENSOR  for field in x, y, z        (C/m^2)
          XX          YY          ZZ          XY          YZ          ZX
  --------------------------------------------------------------------------------
  x    -0.00006    -0.00043     0.00041    -0.00017     0.00006    -0.00038
  y     0.00019    -0.00016    -0.00011     0.00023     0.00010     0.00010
  z    -0.00039     0.00022    -0.00052     0.00027     0.00065     0.00055
 
 BORN EFFECTIVE CHARGES (in e, cummulative output)
 -------------------------------------------------
 ion    1
    1    -5.76365    -0.08790     0.01148
    2     0.05356    -5.76992     0.03359
    3    -0.13143     0.01263    -5.76258
 ion    2
    1    -5.80532     0.08885     0.01442
    2    -0.08205    -5.80644     0.09758
    3    -0.03737    -0.03444    -5.78051
 ion    3
    1    -5.76778     0.08340    -0.06659
    2    -0.05462    -5.76380     0.04780
    3     0.04670    -0.02605    -5.75826
 ion    4
    1    -5.72240    -0.08744     0.02382
    2     0.08150    -5.71852    -0.03926
    3    -0.03472     0.12325    -5.71946
 ion    5
    1    -5.79613    -0.09265    -0.02038
    2     0.04984    -5.79560    -0.04517
    3     0.12331     0.03049    -5.79948
 ion    6
    1    -5.78883    -0.06029    -0.01997
    2     0.05264    -5.81300     0.04772
    3     0.03274    -0.11597    -5.81394
 ion    7
    1    -5.77019     0.08854     0.06527
    2    -0.05411    -5.77342    -0.02349
    3    -0.04861    -0.00064    -5.77985
 ion    8
    1    -5.79274     0.05820    -0.02762
    2    -0.05556    -5.76518    -0.08954
    3     0.02946     0.03999    -5.79346


--------------------------------------------------------------------------------------------------------


     LOOP+:  cpu time   19.55: real time   20.00
    4ORBIT:  cpu time    0.00: real time    0.00

 total amount of memory used by VASP on root node    32224. kBytes
========================================================================

   base      :      30000. kBytes
   nonl-proj :        202. kBytes
   fftplans  :        782. kBytes
   grid      :       1198. kBytes
   one-center:         24. kBytes
   wavefun   :         18. kBytes
 
  
  
 General timing and accounting informations for this job:
 ========================================================
  
                  Total CPU time used (sec):       20.885
                            User time (sec):       15.827
                          System time (sec):        5.058
                         Elapsed time (sec):       23.514
  
                   Maximum memory used (kb):       64432.
                   Average memory used (kb):           0.
  
                          Minor page faults:       201828
                          Major page faults:            0
                 Voluntary context switches:         1442
