 vasp.5.3.3 18Dez12 (build Jan  9 2014 12:00:49) complex                        
  
 executed on             LinuxIFC date 2014.01.29  10:02:55
 running on   48 total cores
 distrk:  each k-point on   48 cores,    1 groups
 distr:  one band on NCORES_PER_BAND=   1 cores,   48 groups


--------------------------------------------------------------------------------------------------------


 INCAR:
 POTCAR:    PAW Si                                

 ----------------------------------------------------------------------------- 
|                                                                             |
|           W    W    AA    RRRRR   N    N  II  N    N   GGGG   !!!           |
|           W    W   A  A   R    R  NN   N  II  NN   N  G    G  !!!           |
|           W    W  A    A  R    R  N N  N  II  N N  N  G       !!!           |
|           W WW W  AAAAAA  RRRRR   N  N N  II  N  N N  G  GGG   !            |
|           WW  WW  A    A  R   R   N   NN  II  N   NN  G    G                |
|           W    W  A    A  R    R  N    N  II  N    N   GGGG   !!!           |
|                                                                             |
|      For optimal performance we recommend that you set                      |
|        NPAR = 4 - approx SQRT( number of cores)                             |
|      (number of cores/NPAR must be integer)                                 |
|      This setting will greatly improve the performance of VASP for DFT.     |
|      The default NPAR=number of cores might be grossly inefficient          |
|      on modern multi-core architectures or massively parallel machines.     |
|      Do your own testing.                                                   |
|      Unfortunately you need to use the default for hybrid, GW and RPA       |
|      calculations.                                                          |
|                                                                             |
 ----------------------------------------------------------------------------- 

 POTCAR:    PAW Si                                
   VRHFIN =Si: s2p2                                                             
   LEXCH  = 91                                                                  
   EATOM  =   103.3076 eV,    7.5929 Ry                                         
                                                                                
   TITEL  = PAW Si                                                              
   LULTRA =        F    use ultrasoft PP ?                                      
   IUNSCR =        1    unscreen: 0-lin 1-nonlin 2-no                           
   RPACOR =    1.500    partial core radius                                     
   POMASS =   28.085; ZVAL   =    4.000    mass and valenz                      
   RCORE  =    1.900    outmost cutoff radius                                   
   RWIGS  =    2.480; RWIGS  =    1.312    wigner-seitz radius (au A)           
   ENMAX  =  245.435; ENMIN  =  184.076 eV                                      
   ICORE  =        2    local potential                                         
   LCOR   =        T    correct aug charges                                     
   LPAW   =        T    paw PP                                                  
   EAUG   =  322.069                                                            
   DEXC   =    -.001                                                            
   RMAX   =    2.943    core radius for proj-oper                               
   RAUG   =    1.300    factor for augmentation sphere                          
   RDEP   =    1.993    core radius for depl-charge                             
   QCUT   =   -4.247; QGAM   =    8.494    optimization parameters              
                                                                                
   Description                                                                  
     l     E      TYP  RCUT    TYP  RCUT                                        
     0   .000     23  1.900                                                     
     0   .000     23  1.900                                                     
     1   .000     23  1.900                                                     
     1   .000     23  1.900                                                     
     2   .000      7  1.900                                                     
  local pseudopotential read in
  partial core-charges read in
  atomic valenz-charges read in
  non local Contribution for L=           0  read in
    real space projection operators read in
  non local Contribution for L=           0  read in
    real space projection operators read in
  non local Contribution for L=           1  read in
    real space projection operators read in
  non local Contribution for L=           1  read in
    real space projection operators read in
    PAW grid and wavefunctions read in
 
   number of l-projection  operators is LMAX  =           4
   number of lm-projection operators is LMMAX =           8
 
  PAW Si                                :
 energy of atom  1       EATOM= -103.3076
 kinetic energy error for atom=    0.0109 (will be added to EATOM!!)
 
 
 POSCAR: OUTCAR.0011.-1.out 1.0e-02              
  positions in cartesian coordinates
  No initial velocities read in
 exchange correlation table for  LEXCH =        7
   RHO(1)=    0.500       N(1)  =     2000
   RHO(2)=  100.500       N(2)  =     4000

 VTST: version 3.0c, (01/09/14)

 CHAIN: initializing optimizer
 
 OPT: Using VASP Dynamics algorithm
 CHAIN: Read ICHAIN            0
 
 POSCAR: OUTCAR.0011.-1.out 1.0e-02              
  positions in cartesian coordinates
  No initial velocities read in
 


--------------------------------------------------------------------------------------------------------


 ion  position               nearest neighbor table
   1  0.000  1.000  0.999-   6 2.37   8 2.37   2 2.37   4 2.37
   2  0.250  0.249  0.250-   5 2.36   1 2.37   7 2.37   3 2.37
   3  0.499  0.500  1.000-   8 2.36   4 2.37   6 2.37   2 2.37
   4  0.750  0.750  0.250-   7 2.36   3 2.37   1 2.37   5 2.37
   5  0.500  1.000  0.499-   2 2.36   8 2.37   6 2.37   4 2.37
   6  0.750  0.249  0.750-   1 2.37   7 2.37   5 2.37   3 2.37
   7  0.999  0.500  0.500-   4 2.36   6 2.37   8 2.37   2 2.37
   8  0.250  0.750  0.750-   3 2.36   1 2.37   5 2.37   7 2.37
 
  LATTYP: Found a simple cubic cell.
 ALAT       =     5.4700000000
  
  Lattice vectors:
  
 A1 = (   5.4700000000,   0.0000000000,   0.0000000000)
 A2 = (   0.0000000000,   5.4700000000,   0.0000000000)
 A3 = (   0.0000000000,   0.0000000000,   5.4700000000)


Analysis of symmetry for initial positions (statically):
=====================================================================
 Subroutine PRICEL returns:
 Original cell was already a primitive cell.
 

 Routine SETGRP: Setting up the symmetry group for a 
 simple cubic supercell.


 Subroutine GETGRP returns: Found  1 space group operations
 (whereof  1 operations were pure point group operations)
 out of a pool of 48 trial point group operations.


The static configuration has the point symmetry C_1 .


Analysis of symmetry for dynamics (positions and initial velocities):
=====================================================================
 Subroutine PRICEL returns:
 Original cell was already a primitive cell.
 

 Routine SETGRP: Setting up the symmetry group for a 
 simple cubic supercell.


 Subroutine GETGRP returns: Found  1 space group operations
 (whereof  1 operations were pure point group operations)
 out of a pool of 48 trial point group operations.


The dynamic configuration has the point symmetry C_1 .


 irot  :   1
 --------------------------------------------------------------------
 isymop:   1   0   0
           0   1   0
           0   0   1

 gtrans:     0.0000000     0.0000000     0.0000000

 ptrans:     0.0000000     0.0000000     0.0000000
 rotmap:
 (   1->   1)  (   2->   2)  (   3->   3)  (   4->   4)  (   5->   5) 
 (   6->   6)  (   7->   7)  (   8->   8) 
 
 
 KPOINTS: Automatic mesh                          

Automatic generation of k-mesh.
Space group operators:
 irot       det(A)        alpha          n_x          n_y          n_z        tau_x        tau_y        tau_z
    1     1.000000     0.000001     1.000000     0.000000     0.000000     0.000000     0.000000     0.000000
 
 Subroutine IBZKPT returns following result:
 ===========================================
 
 Found      1 irreducible k-points:
 
 Following reciprocal coordinates:
            Coordinates               Weight
  0.000000  0.000000  0.000000      1.000000
 
 Following cartesian coordinates:
            Coordinates               Weight
  0.000000  0.000000  0.000000      1.000000
 
 
 Subroutine IBZKPT_HF returns following result:
 ==============================================
 
 Found      1 k-points in 1st BZ
 the following      1 k-points will be used (e.g. in the exchange kernel)
 Following reciprocal coordinates:   # in IRBZ
  0.000000  0.000000  0.000000       1 t-inv F


--------------------------------------------------------------------------------------------------------




 Dimension of arrays:
   k-points           NKPTS =      1   k-points in BZ     NKDIM =      1   number of bands    NBANDS=     48
   number of dos      NEDOS =    301   number of ions     NIONS =      8
   non local maximal  LDIM  =      4   non local SUM 2l+1 LMDIM =      8
   total plane-waves  NPLWV =  21952
   max r-space proj   IRMAX =      1   max aug-charges    IRDMAX=  36071
   dimension x,y,z NGX =    28 NGY =   28 NGZ =   28
   dimension x,y,z NGXF=    56 NGYF=   56 NGZF=   56
   support grid    NGXF=   112 NGYF=  112 NGZF=  112
   ions per type =               8
 NGX,Y,Z   is equivalent  to a cutoff of   8.51,  8.51,  8.51 a.u.
 NGXF,Y,Z  is equivalent  to a cutoff of  17.02, 17.02, 17.02 a.u.


 I would recommend the setting:
   dimension x,y,z NGX =    19 NGY =   19 NGZ =   19
 SYSTEM =  NAPTHA04                                
 POSCAR =  OUTCAR.0011.-1.out 1.0e-02              

 Startparameter for this run:
   NWRITE =      3    write-flag & timer
   PREC   = normal    normal or accurate (medium, high low for compatibility)
   ISTART =      0    job   : 0-new  1-cont  2-samecut
   ICHARG =      2    charge: 1-file 2-atom 10-const
   ISPIN  =      1    spin polarized calculation?
   LNONCOLLINEAR =      F non collinear calculations
   LSORBIT =      F    spin-orbit coupling
   INIWAV =      1    electr: 0-lowe 1-rand  2-diag
   LASPH  =      F    aspherical Exc in radial PAW
   METAGGA=      F    non-selfconsistent MetaGGA calc.

 Electronic Relaxation 1
   ENCUT  =  200.0 eV  14.70 Ry    3.83 a.u.   6.31  6.31  6.31*2*pi/ulx,y,z
   ENINI  =  200.0     initial cutoff
   ENAUG  =  322.1 eV  augmentation charge cutoff
   NELM   =     60;   NELMIN=  2; NELMDL= -5     # of ELM steps 
   EDIFF  = 0.1E-07   stopping-criterion for ELM
   LREAL  =      F    real-space projection
   NLSPLINE    = F    spline interpolate recip. space projectors
   LCOMPAT=      F    compatible to vasp.4.4
   GGA_COMPAT  = T    GGA compatible to vasp.4.4-vasp.4.6
   LMAXPAW     = -100 max onsite density
   LMAXMIX     =    2 max onsite mixed and CHGCAR
   VOSKOWN=      0    Vosko Wilk Nusair interpolation
   ROPT   =    0.00000
 Ionic relaxation
   EDIFFG = 0.1E-06   stopping-criterion for IOM
   NSW    =      0    number of steps for IOM
   NBLOCK =      1;   KBLOCK =      1    inner block; outer block 
   IBRION =     -1    ionic relax: 0-MD 1-quasi-New 2-CG
   NFREE  =      0    steps in history (QN), initial steepest desc. (CG)
   ISIF   =      2    stress and relaxation
   IWAVPR =     10    prediction:  0-non 1-charg 2-wave 3-comb
   ISYM   =      2    0-nonsym 1-usesym 2-fastsym
   LCORR  =      T    Harris-Foulkes like correction to forces

   POTIM  = 0.5000    time-step for ionic-motion
   TEIN   =    0.0    initial temperature
   TEBEG  =    0.0;   TEEND  =   0.0 temperature during run
   SMASS  =  -3.00    Nose mass-parameter (am)
   estimated Nose-frequenzy (Omega)   =  0.10E-29 period in steps =****** mass=  -0.684E-27a.u.
   SCALEE = 1.0000    scale energy and forces
   NPACO  =    256;   APACO  = 16.0  distance and # of slots for P.C.
   PSTRESS=    0.0 pullay stress

  Mass of Ions in am
   POMASS =  28.09
  Ionic Valenz
   ZVAL   =   4.00
  Atomic Wigner-Seitz radii
   RWIGS  =  -1.00
  virtual crystal weights 
   VCA    =   1.00
   NELECT =      32.0000    total number of electrons
   NUPDOWN=      -1.0000    fix difference up-down

 DOS related values:
   EMIN   =  10.00;   EMAX   =-10.00  energy-range for DOS
   EFERMI =   0.00
   ISMEAR =     0;   SIGMA  =   0.02  broadening in eV -4-tet -1-fermi 0-gaus

 Electronic relaxation 2 (details)
   IALGO  =     68    algorithm
   LDIAG  =      T    sub-space diagonalisation (order eigenvalues)
   LSUBROT=      T    optimize rotation matrix (better conditioning)
   TURBO    =      0    0=normal 1=particle mesh
   IRESTART =      0    0=no restart 2=restart with 2 vectors
   NREBOOT  =      0    no. of reboots
   NMIN     =      0    reboot dimension
   EREF     =   0.00    reference energy to select bands
   IMIX   =      4    mixing-type and parameters
     AMIX     =   0.40;   BMIX     =  1.00
     AMIX_MAG =   1.60;   BMIX_MAG =  1.00
     AMIN     =   0.10
     WC   =   100.;   INIMIX=   1;  MIXPRE=   1;  MAXMIX= -45

 Intra band minimization:
   WEIMIN = 0.0000     energy-eigenvalue tresh-hold
   EBREAK =  0.52E-10  absolut break condition
   DEPER  =   0.30     relativ break condition  

   TIME   =   0.40     timestep for ELM

  volume/ion in A,a.u.               =      20.46       138.06
  Fermi-wavevector in a.u.,A,eV,Ry     =   0.950176  1.795573 12.283814  0.902835
  Thomas-Fermi vector in A             =   2.078528
 
 Write flags
   LWAVE  =      F    write WAVECAR
   LCHARG =      F    write CHGCAR
   LVTOT  =      F    write LOCPOT, total local potential
   LVHAR  =      F    write LOCPOT, Hartree potential only
   LELF   =      F    write electronic localiz. function (ELF)
   LORBIT =      0    0 simple, 1 ext, 2 COOP (PROOUT)


 Dipole corrections
   LMONO  =      F    monopole corrections only (constant potential shift)
   LDIPOL =      F    correct potential (dipole corrections)
   IDIPOL =      0    1-x, 2-y, 3-z, 4-all directions 
   EPSILON=  1.0000000 bulk dielectric constant

 Exchange correlation treatment:
   GGA     =    --    GGA type
   LEXCH   =     7    internal setting for exchange type
   VOSKOWN=      0    Vosko Wilk Nusair interpolation
   LHFCALC =     F    Hartree Fock is set to
   LHFONE  =     F    Hartree Fock one center treatment
   AEXX    =    0.0000 exact exchange contribution

 Linear response parameters
   LEPSILON=     T    determine dielectric tensor
   LRPA    =     F    only Hartree local field effects (RPA)
   LNABLA  =     F    use nabla operator in PAW spheres
   LVEL    =     F    velocity operator in full k-point grid
   LINTERFAST=   F  fast interpolation
   KINTER  =     0    interpolate to denser k-point grid
   CSHIFT  =0.1000    complex shift for real part using Kramers Kronig
   OMEGAMAX=  -1.0    maximum frequency
   DEG_THRESHOLD= 0.2000000E-02 threshold for treating states as degnerate
   RTIME   =    0.100 relaxation time in fs

 Orbital magnetization related:
   ORBITALMAG=     F  switch on orbital magnetization
   LCHIMAG   =     F  perturbation theory with respect to B field
   DQ        =  0.001000  dq finite difference perturbation B field



--------------------------------------------------------------------------------------------------------


 Static calculation
 charge density and potential will be updated during run
 non-spin polarized calculation
 RMM-DIIS sequential band-by-band and
  variant of blocked Davidson during initial phase
 perform sub-space diagonalisation
    before iterative eigenvector-optimisation
 modified Broyden-mixing scheme, WC =      100.0
 initial mixing is a Kerker type mixing with AMIX =  0.4000 and BMIX =      1.0000
 Hartree-type preconditioning will be used
 using additional bands           32
 reciprocal scheme for non local part
 use partial core corrections
 calculate Harris-corrections to forces 
   (improved forces if not selfconsistent)
 use gradient corrections 
 use of overlap-Matrix (Vanderbilt PP)
 Gauss-broadening in eV      SIGMA  =   0.02


--------------------------------------------------------------------------------------------------------


  energy-cutoff  :      200.00
  volume of cell :      163.67
      direct lattice vectors                 reciprocal lattice vectors
     5.470000000  0.000000000  0.000000000     0.182815356  0.000000000  0.000000000
     0.000000000  5.470000000  0.000000000     0.000000000  0.182815356  0.000000000
     0.000000000  0.000000000  5.470000000     0.000000000  0.000000000  0.182815356

  length of vectors
     5.470000000  5.470000000  5.470000000     0.182815356  0.182815356  0.182815356


 
 k-points in units of 2pi/SCALE and weight: Automatic mesh                          
   0.00000000  0.00000000  0.00000000       1.000
 
 k-points in reciprocal lattice and weights: Automatic mesh                          
   0.00000000  0.00000000  0.00000000       1.000
 
 position of ions in fractional coordinates (direct lattice) 
   0.00018115  0.99999445  0.99946627
   0.24999445  0.24946627  0.25048663
   0.49946627  0.50048663  0.99955449
   0.75048663  0.74955449  0.24991483
   0.49955449  0.99991483  0.49939853
   0.74991483  0.24939853  0.75002996
   0.99939853  0.50002996  0.50013164
   0.25002996  0.75013164  0.75006635
 
 position of ions in cartesian coordinates  (Angst):
   0.00099092  5.46996962  5.46708052
   1.36746962  1.36458052  1.37016185
   2.73208052  2.73766185  5.46756307
   4.10516185  4.10006307  1.36703414
   2.73256307  5.46953414  2.73170993
   4.10203414  1.36420993  4.10266386
   5.46670993  2.73516386  2.73572005
   1.36766386  4.10322005  4.10286296
 


--------------------------------------------------------------------------------------------------------


 k-point  1 :   0.0000 0.0000 0.0000  plane waves:    1021

 maximum and minimum number of plane-waves per node :      1021     1021

 maximum number of plane-waves:      1021
 maximum index in each direction: 
   IXMAX=    6   IYMAX=    6   IZMAX=    6
   IXMIN=   -6   IYMIN=   -6   IZMIN=   -6

 NGX is ok and might be reduce to  26
 NGY is ok and might be reduce to  26
 NGZ is ok and might be reduce to  26

 serial   3D FFT for wavefunctions
 parallel 3D FFT for charge:
    minimum data exchange during FFTs selected (reduces bandwidth)


 total amount of memory used by VASP on root node    32224. kBytes
========================================================================

   base      :      30000. kBytes
   nonl-proj :        202. kBytes
   fftplans  :        782. kBytes
   grid      :       1198. kBytes
   one-center:         24. kBytes
   wavefun   :         18. kBytes
 
 Broyden mixing: mesh for mixing (old mesh)
   NGX = 13   NGY = 13   NGZ = 13
  (NGX  = 56   NGY  = 56   NGZ  = 56)
  gives a total of   2197 points

 initial charge density was supplied:
 charge density of overlapping atoms calculated
 number of electron      32.0000000 magnetization 
 keeping initial charge density in first step


--------------------------------------------------------------------------------------------------------


 Maximum index for augmentation-charges         1788 (set IRDMAX)


--------------------------------------------------------------------------------------------------------


 First call to EWALD:  gamma=   0.324
 Maximum number of real-space cells 3x 3x 3
 Maximum number of reciprocal cells 3x 3x 3

 FEWALD executed in parallel
    FEWALD:  cpu time    0.00: real time    0.00


----------------------------------------- Iteration    1(   1)  ---------------------------------------


    POTLOK:  cpu time    0.03: real time    0.03
    SETDIJ:  cpu time    0.02: real time    0.02
     EDDAV:  cpu time    0.39: real time    0.39
       DOS:  cpu time    0.00: real time    0.00
    --------------------------------------------
      LOOP:  cpu time    0.44: real time    0.46

 eigenvalue-minimisations  :    96
 total energy-change (2. order) :-0.1016491E+02  (-0.7956500E+03)
 number of electron      32.0000000 magnetization 
 augmentation part       32.0000000 magnetization 

 Free energy of the ion-electron system (eV)
  ---------------------------------------------------
  alpha Z        PSCENC =        12.68944982
  Ewald energy   TEWEN  =      -907.56696865
  -1/2 Hartree   DENC   =       -45.63603887
  -exchange  EXHF       =         0.00000000
  -V(xc)+E(xc)   XCENC  =       -76.79672170
  PAW double counting   =       265.93453375     -123.69690146
  entropy T*S    EENTRO =        -0.00018720
  eigenvalues    EBANDS =        38.53394308
  atomic energy  EATOM  =       826.37398168
  ---------------------------------------------------
  free energy    TOTEN  =       -10.16490955 eV

  energy without entropy =      -10.16472235  energy(sigma->0) =      -10.16481595


--------------------------------------------------------------------------------------------------------




 average (electrostatic) potential at core
  the test charge radii are     0.9892
  (the norm of the test charge is              1.0000)
       1 -84.3529       2 -84.3493       3 -84.3469       4 -84.3495       5 -84.3525
       6 -84.3490       7 -84.3503       8 -84.3549
 
 
 
 E-fermi :   6.6079     XC(G=0):  -9.5533     alpha+bet :-11.7379


 k-point   1 :       0.0000    0.0000    0.0000
  band No.  band energies     occupation 
      1      -6.5896      2.00000
      2      -2.4169      2.00000
      3      -2.2450      2.00000
      4      -2.1153      2.00000
      5      -2.0295      2.00000
      6      -1.8789      2.00000
      7      -1.6819      2.00000
      8       2.7403      2.00000
      9       2.8476      2.00000
     10       2.9930      2.00000
     11       3.1628      2.00000
     12       3.3453      2.00000
     13       4.0815      2.00000
     14       6.1299      2.00000
     15       6.3593      2.00000
     16       6.5642      1.99804
     17       6.6517      0.00196
     18       6.8122      0.00000
     19       6.9027      0.00000
     20       7.1765      0.00000
     21       7.3829      0.00000
     22       8.0490      0.00000
     23       8.9837      0.00000
     24       9.3770      0.00000
     25      10.4476      0.00000
     26      11.4481      0.00000
     27      13.5070      0.00000
     28      14.7710      0.00000
     29      16.5607      0.00000
     30      16.8967      0.00000
     31      17.3604      0.00000
     32      17.5900      0.00000
     33      17.9320      0.00000
     34      18.1249      0.00000
     35      18.5000      0.00000
     36      18.8763      0.00000
     37      19.3677      0.00000
     38      19.5065      0.00000
     39      19.8658      0.00000
     40      20.2604      0.00000
     41      21.1000      0.00000
     42      21.6866      0.00000
     43      22.1779      0.00000
     44      22.7571      0.00000
     45      23.8960      0.00000
     46      24.4008      0.00000
     47      24.8201      0.00000
     48      25.8418      0.00000


--------------------------------------------------------------------------------------------------------


 soft charge-density along one line, spin component           1
         0         1         2         3         4         5         6         7         8         9
 total charge-density along one line
 
 pseudopotential strength for first ion, spin component:           1
 18.662   0.000   0.000   0.000   0.000   0.000   0.000   0.000
  0.000   0.006   0.000   0.000   0.000   0.000   0.000   0.000
  0.000   0.000   4.216   0.000   0.000  -0.004   0.000   0.000
  0.000   0.000   0.000   4.216   0.000   0.000  -0.004   0.000
  0.000   0.000   0.000   0.000   4.216   0.000   0.000  -0.004
  0.000   0.000  -0.004   0.000   0.000   0.005   0.000   0.000
  0.000   0.000   0.000  -0.004   0.000   0.000   0.005   0.000
  0.000   0.000   0.000   0.000  -0.004   0.000   0.000   0.005
 total augmentation occupancy for first ion, spin component:           1
  2.000   0.000   0.000   0.000   0.000   0.000   0.000   0.000
  0.000   0.000   0.000   0.000   0.000   0.000   0.000   0.000
  0.000   0.000   0.667   0.000   0.000   0.000   0.000   0.000
  0.000   0.000   0.000   0.667   0.000   0.000   0.000   0.000
  0.000   0.000   0.000   0.000   0.667   0.000   0.000   0.000
  0.000   0.000   0.000   0.000   0.000   0.000   0.000   0.000
  0.000   0.000   0.000   0.000   0.000   0.000   0.000   0.000
  0.000   0.000   0.000   0.000   0.000   0.000   0.000   0.000


----------------------------------------- Iteration    1(   2)  ---------------------------------------


     EDDAV:  cpu time    0.96: real time    0.96
       DOS:  cpu time    0.00: real time    0.00
    --------------------------------------------
      LOOP:  cpu time    0.96: real time    0.96

 eigenvalue-minimisations  :   144
 total energy-change (2. order) :-0.2428529E+02  (-0.2428343E+02)
 number of electron      32.0000000 magnetization 
 augmentation part       32.0000000 magnetization 

 Free energy of the ion-electron system (eV)
  ---------------------------------------------------
  alpha Z        PSCENC =        12.68944982
  Ewald energy   TEWEN  =      -907.56696865
  -1/2 Hartree   DENC   =       -45.63603887
  -exchange  EXHF       =         0.00000000
  -V(xc)+E(xc)   XCENC  =       -76.79672170
  PAW double counting   =       265.93453375     -123.69690146
  entropy T*S    EENTRO =         0.00000000
  eigenvalues    EBANDS =        14.24846143
  atomic energy  EATOM  =       826.37398168
  ---------------------------------------------------
  free energy    TOTEN  =       -34.45020400 eV

  energy without entropy =      -34.45020400  energy(sigma->0) =      -34.45020400


--------------------------------------------------------------------------------------------------------




 average (electrostatic) potential at core
  the test charge radii are     0.9892
  (the norm of the test charge is              1.0000)
       1 -84.3529       2 -84.3493       3 -84.3469       4 -84.3495       5 -84.3525
       6 -84.3490       7 -84.3503       8 -84.3549
 
 
 
 E-fermi :   5.2539     XC(G=0):  -9.5533     alpha+bet :-11.7379


 k-point   1 :       0.0000    0.0000    0.0000
  band No.  band energies     occupation 
      1      -6.6371      2.00000
      2      -2.6431      2.00000
      3      -2.6418      2.00000
      4      -2.6345      2.00000
      5      -2.6227      2.00000
      6      -2.6186      2.00000
      7      -2.6145      2.00000
      8       2.3734      2.00000
      9       2.3754      2.00000
     10       2.3772      2.00000
     11       2.3857      2.00000
     12       2.3880      2.00000
     13       2.3966      2.00000
     14       5.0485      2.00000
     15       5.0909      2.00000
     16       5.1008      2.00000
     17       6.1465      0.00000
     18       6.1486      0.00000
     19       6.1494      0.00000
     20       6.1612      0.00000
     21       6.1643      0.00000
     22       6.1697      0.00000
     23       7.8468      0.00000
     24       7.8524      0.00000
     25       7.8722      0.00000
     26       8.1266      0.00000
     27      13.2006      0.00000
     28      13.2622      0.00000
     29      13.2698      0.00000
     30      15.1028      0.00000
     31      15.1363      0.00000
     32      15.1684      0.00000
     33      15.2469      0.00000
     34      15.3133      0.00000
     35      15.6361      0.00000
     36      16.3710      0.00000
     37      16.4285      0.00000
     38      16.4514      0.00000
     39      16.5420      0.00000
     40      16.7144      0.00000
     41      16.7439      0.00000
     42      16.7769      0.00000
     43      16.8732      0.00000
     44      17.2300      0.00000
     45      17.9101      0.00000
     46      17.9448      0.00000
     47      17.9885      0.00000
     48      18.0267      0.00000


--------------------------------------------------------------------------------------------------------


 soft charge-density along one line, spin component           1
         0         1         2         3         4         5         6         7         8         9
 total charge-density along one line
 
 pseudopotential strength for first ion, spin component:           1
 18.662   0.000   0.000   0.000   0.000   0.000   0.000   0.000
  0.000   0.006   0.000   0.000   0.000   0.000   0.000   0.000
  0.000   0.000   4.216   0.000   0.000  -0.004   0.000   0.000
  0.000   0.000   0.000   4.216   0.000   0.000  -0.004   0.000
  0.000   0.000   0.000   0.000   4.216   0.000   0.000  -0.004
  0.000   0.000  -0.004   0.000   0.000   0.005   0.000   0.000
  0.000   0.000   0.000  -0.004   0.000   0.000   0.005   0.000
  0.000   0.000   0.000   0.000  -0.004   0.000   0.000   0.005
 total augmentation occupancy for first ion, spin component:           1
  2.000   0.000   0.000   0.000   0.000   0.000   0.000   0.000
  0.000   0.000   0.000   0.000   0.000   0.000   0.000   0.000
  0.000   0.000   0.667   0.000   0.000   0.000   0.000   0.000
  0.000   0.000   0.000   0.667   0.000   0.000   0.000   0.000
  0.000   0.000   0.000   0.000   0.667   0.000   0.000   0.000
  0.000   0.000   0.000   0.000   0.000   0.000   0.000   0.000
  0.000   0.000   0.000   0.000   0.000   0.000   0.000   0.000
  0.000   0.000   0.000   0.000   0.000   0.000   0.000   0.000


----------------------------------------- Iteration    1(   3)  ---------------------------------------


     EDDAV:  cpu time    0.37: real time    0.38
       DOS:  cpu time    0.00: real time    0.00
    --------------------------------------------
      LOOP:  cpu time    0.38: real time    0.38

 eigenvalue-minimisations  :    96
 total energy-change (2. order) :-0.1670435E+00  (-0.1670435E+00)
 number of electron      32.0000000 magnetization 
 augmentation part       32.0000000 magnetization 

 Free energy of the ion-electron system (eV)
  ---------------------------------------------------
  alpha Z        PSCENC =        12.68944982
  Ewald energy   TEWEN  =      -907.56696865
  -1/2 Hartree   DENC   =       -45.63603887
  -exchange  EXHF       =         0.00000000
  -V(xc)+E(xc)   XCENC  =       -76.79672170
  PAW double counting   =       265.93453375     -123.69690146
  entropy T*S    EENTRO =         0.00000000
  eigenvalues    EBANDS =        14.08141790
  atomic energy  EATOM  =       826.37398168
  ---------------------------------------------------
  free energy    TOTEN  =       -34.61724753 eV

  energy without entropy =      -34.61724753  energy(sigma->0) =      -34.61724753


--------------------------------------------------------------------------------------------------------




 average (electrostatic) potential at core
  the test charge radii are     0.9892
  (the norm of the test charge is              1.0000)
       1 -84.3529       2 -84.3493       3 -84.3469       4 -84.3495       5 -84.3525
       6 -84.3490       7 -84.3503       8 -84.3549
 
 
 
 E-fermi :   5.2237     XC(G=0):  -9.5533     alpha+bet :-11.7379


 k-point   1 :       0.0000    0.0000    0.0000
  band No.  band energies     occupation 
      1      -6.6372      2.00000
      2      -2.6458      2.00000
      3      -2.6442      2.00000
      4      -2.6363      2.00000
      5      -2.6250      2.00000
      6      -2.6204      2.00000
      7      -2.6166      2.00000
      8       2.3696      2.00000
      9       2.3723      2.00000
     10       2.3736      2.00000
     11       2.3823      2.00000
     12       2.3829      2.00000
     13       2.3854      2.00000
     14       5.0398      2.00000
     15       5.0796      2.00000
     16       5.0806      2.00000
     17       6.1433      0.00000
     18       6.1448      0.00000
     19       6.1474      0.00000
     20       6.1583      0.00000
     21       6.1615      0.00000
     22       6.1639      0.00000
     23       7.8417      0.00000
     24       7.8422      0.00000
     25       7.8645      0.00000
     26       8.1178      0.00000
     27      13.1845      0.00000
     28      13.1867      0.00000
     29      13.2693      0.00000
     30      15.0853      0.00000
     31      15.0897      0.00000
     32      15.0940      0.00000
     33      15.1083      0.00000
     34      15.1291      0.00000
     35      15.1796      0.00000
     36      16.3083      0.00000
     37      16.3312      0.00000
     38      16.3453      0.00000
     39      16.3721      0.00000
     40      16.4325      0.00000
     41      16.4816      0.00000
     42      16.7076      0.00000
     43      16.7235      0.00000
     44      16.8139      0.00000
     45      17.8806      0.00000
     46      17.8845      0.00000
     47      17.9223      0.00000
     48      17.9408      0.00000


--------------------------------------------------------------------------------------------------------


 soft charge-density along one line, spin component           1
         0         1         2         3         4         5         6         7         8         9
 total charge-density along one line
 
 pseudopotential strength for first ion, spin component:           1
 18.662   0.000   0.000   0.000   0.000   0.000   0.000   0.000
  0.000   0.006   0.000   0.000   0.000   0.000   0.000   0.000
  0.000   0.000   4.216   0.000   0.000  -0.004   0.000   0.000
  0.000   0.000   0.000   4.216   0.000   0.000  -0.004   0.000
  0.000   0.000   0.000   0.000   4.216   0.000   0.000  -0.004
  0.000   0.000  -0.004   0.000   0.000   0.005   0.000   0.000
  0.000   0.000   0.000  -0.004   0.000   0.000   0.005   0.000
  0.000   0.000   0.000   0.000  -0.004   0.000   0.000   0.005
 total augmentation occupancy for first ion, spin component:           1
  2.000   0.000   0.000   0.000   0.000   0.000   0.000   0.000
  0.000   0.000   0.000   0.000   0.000   0.000   0.000   0.000
  0.000   0.000   0.667   0.000   0.000   0.000   0.000   0.000
  0.000   0.000   0.000   0.667   0.000   0.000   0.000   0.000
  0.000   0.000   0.000   0.000   0.667   0.000   0.000   0.000
  0.000   0.000   0.000   0.000   0.000   0.000   0.000   0.000
  0.000   0.000   0.000   0.000   0.000   0.000   0.000   0.000
  0.000   0.000   0.000   0.000   0.000   0.000   0.000   0.000


----------------------------------------- Iteration    1(   4)  ---------------------------------------


     EDDAV:  cpu time    1.98: real time    1.98
       DOS:  cpu time    0.00: real time    0.00
    --------------------------------------------
      LOOP:  cpu time    1.98: real time    1.99

 eigenvalue-minimisations  :   192
 total energy-change (2. order) :-0.3545548E-03  (-0.3545548E-03)
 number of electron      32.0000000 magnetization 
 augmentation part       32.0000000 magnetization 

 Free energy of the ion-electron system (eV)
  ---------------------------------------------------
  alpha Z        PSCENC =        12.68944982
  Ewald energy   TEWEN  =      -907.56696865
  -1/2 Hartree   DENC   =       -45.63603887
  -exchange  EXHF       =         0.00000000
  -V(xc)+E(xc)   XCENC  =       -76.79672170
  PAW double counting   =       265.93453375     -123.69690146
  entropy T*S    EENTRO =         0.00000000
  eigenvalues    EBANDS =        14.08106335
  atomic energy  EATOM  =       826.37398168
  ---------------------------------------------------
  free energy    TOTEN  =       -34.61760209 eV

  energy without entropy =      -34.61760209  energy(sigma->0) =      -34.61760209


--------------------------------------------------------------------------------------------------------




 average (electrostatic) potential at core
  the test charge radii are     0.9892
  (the norm of the test charge is              1.0000)
       1 -84.3529       2 -84.3493       3 -84.3469       4 -84.3495       5 -84.3525
       6 -84.3490       7 -84.3503       8 -84.3549
 
 
 
 E-fermi :   5.2052     XC(G=0):  -9.5533     alpha+bet :-11.7379


 k-point   1 :       0.0000    0.0000    0.0000
  band No.  band energies     occupation 
      1      -6.6372      2.00000
      2      -2.6458      2.00000
      3      -2.6442      2.00000
      4      -2.6363      2.00000
      5      -2.6250      2.00000
      6      -2.6204      2.00000
      7      -2.6166      2.00000
      8       2.3696      2.00000
      9       2.3723      2.00000
     10       2.3736      2.00000
     11       2.3823      2.00000
     12       2.3829      2.00000
     13       2.3854      2.00000
     14       5.0398      2.00000
     15       5.0796      2.00000
     16       5.0806      2.00000
     17       6.1433      0.00000
     18       6.1448      0.00000
     19       6.1474      0.00000
     20       6.1583      0.00000
     21       6.1615      0.00000
     22       6.1639      0.00000
     23       7.8417      0.00000
     24       7.8422      0.00000
     25       7.8645      0.00000
     26       8.1178      0.00000
     27      13.1838      0.00000
     28      13.1838      0.00000
     29      13.2693      0.00000
     30      15.0775      0.00000
     31      15.0808      0.00000
     32      15.0836      0.00000
     33      15.0860      0.00000
     34      15.0876      0.00000
     35      15.0934      0.00000
     36      16.2974      0.00000
     37      16.3052      0.00000
     38      16.3085      0.00000
     39      16.3123      0.00000
     40      16.3185      0.00000
     41      16.3199      0.00000
     42      16.6957      0.00000
     43      16.6966      0.00000
     44      16.7208      0.00000
     45      17.8675      0.00000
     46      17.8711      0.00000
     47      17.8768      0.00000
     48      17.9025      0.00000


--------------------------------------------------------------------------------------------------------


 soft charge-density along one line, spin component           1
         0         1         2         3         4         5         6         7         8         9
 total charge-density along one line
 
 pseudopotential strength for first ion, spin component:           1
 18.662   0.000   0.000   0.000   0.000   0.000   0.000   0.000
  0.000   0.006   0.000   0.000   0.000   0.000   0.000   0.000
  0.000   0.000   4.216   0.000   0.000  -0.004   0.000   0.000
  0.000   0.000   0.000   4.216   0.000   0.000  -0.004   0.000
  0.000   0.000   0.000   0.000   4.216   0.000   0.000  -0.004
  0.000   0.000  -0.004   0.000   0.000   0.005   0.000   0.000
  0.000   0.000   0.000  -0.004   0.000   0.000   0.005   0.000
  0.000   0.000   0.000   0.000  -0.004   0.000   0.000   0.005
 total augmentation occupancy for first ion, spin component:           1
  2.000   0.000   0.000   0.000   0.000   0.000   0.000   0.000
  0.000   0.000   0.000   0.000   0.000   0.000   0.000   0.000
  0.000   0.000   0.667   0.000   0.000   0.000   0.000   0.000
  0.000   0.000   0.000   0.667   0.000   0.000   0.000   0.000
  0.000   0.000   0.000   0.000   0.667   0.000   0.000   0.000
  0.000   0.000   0.000   0.000   0.000   0.000   0.000   0.000
  0.000   0.000   0.000   0.000   0.000   0.000   0.000   0.000
  0.000   0.000   0.000   0.000   0.000   0.000   0.000   0.000


----------------------------------------- Iteration    1(   5)  ---------------------------------------


     EDDAV:  cpu time    0.37: real time    0.37
       DOS:  cpu time    0.00: real time    0.00
    CHARGE:  cpu time    0.02: real time    0.02
    MIXING:  cpu time    0.00: real time    0.00
    --------------------------------------------
      LOOP:  cpu time    0.40: real time    0.40

 eigenvalue-minimisations  :    96
 total energy-change (2. order) :-0.3053515E-08  (-0.3054340E-08)
 number of electron      31.9999999 magnetization 
 augmentation part       -1.8053342 magnetization 

 Broyden mixing:
  rms(total) = 0.79306E+00    rms(broyden)= 0.79301E+00
  rms(prec ) = 0.15229E+01
  weight for this iteration     100.00

 Free energy of the ion-electron system (eV)
  ---------------------------------------------------
  alpha Z        PSCENC =        12.68944982
  Ewald energy   TEWEN  =      -907.56696865
  -1/2 Hartree   DENC   =       -45.63603887
  -exchange  EXHF       =         0.00000000
  -V(xc)+E(xc)   XCENC  =       -76.79672170
  PAW double counting   =       265.93453375     -123.69690146
  entropy T*S    EENTRO =         0.00000000
  eigenvalues    EBANDS =        14.08106334
  atomic energy  EATOM  =       826.37398168
  ---------------------------------------------------
  free energy    TOTEN  =       -34.61760209 eV

  energy without entropy =      -34.61760209  energy(sigma->0) =      -34.61760209


--------------------------------------------------------------------------------------------------------




 average (electrostatic) potential at core
  the test charge radii are     0.9892
  (the norm of the test charge is              1.0000)
       1 -84.3529       2 -84.3493       3 -84.3469       4 -84.3495       5 -84.3525
       6 -84.3490       7 -84.3503       8 -84.3549
 
 
 
 E-fermi :   5.2005     XC(G=0):  -9.5533     alpha+bet :-11.7379


 k-point   1 :       0.0000    0.0000    0.0000
  band No.  band energies     occupation 
      1      -6.6372      2.00000
      2      -2.6458      2.00000
      3      -2.6442      2.00000
      4      -2.6363      2.00000
      5      -2.6250      2.00000
      6      -2.6204      2.00000
      7      -2.6166      2.00000
      8       2.3696      2.00000
      9       2.3723      2.00000
     10       2.3736      2.00000
     11       2.3823      2.00000
     12       2.3829      2.00000
     13       2.3854      2.00000
     14       5.0398      2.00000
     15       5.0796      2.00000
     16       5.0806      2.00000
     17       6.1433      0.00000
     18       6.1448      0.00000
     19       6.1474      0.00000
     20       6.1583      0.00000
     21       6.1615      0.00000
     22       6.1639      0.00000
     23       7.8417      0.00000
     24       7.8422      0.00000
     25       7.8645      0.00000
     26       8.1178      0.00000
     27      13.1838      0.00000
     28      13.1838      0.00000
     29      13.2693      0.00000
     30      15.0774      0.00000
     31      15.0808      0.00000
     32      15.0836      0.00000
     33      15.0859      0.00000
     34      15.0876      0.00000
     35      15.0934      0.00000
     36      16.2973      0.00000
     37      16.3046      0.00000
     38      16.3083      0.00000
     39      16.3118      0.00000
     40      16.3183      0.00000
     41      16.3196      0.00000
     42      16.6956      0.00000
     43      16.6963      0.00000
     44      16.7207      0.00000
     45      17.8625      0.00000
     46      17.8649      0.00000
     47      17.8696      0.00000
     48      17.8926      0.00000


--------------------------------------------------------------------------------------------------------


 soft charge-density along one line, spin component           1
         0         1         2         3         4         5         6         7         8         9
 total charge-density along one line
 
 pseudopotential strength for first ion, spin component:           1
 18.662   0.000   0.000   0.000   0.000   0.000   0.000   0.000
  0.000   0.006   0.000   0.000   0.000   0.000   0.000   0.000
  0.000   0.000   4.216   0.000   0.000  -0.004   0.000   0.000
  0.000   0.000   0.000   4.216   0.000   0.000  -0.004   0.000
  0.000   0.000   0.000   0.000   4.216   0.000   0.000  -0.004
  0.000   0.000  -0.004   0.000   0.000   0.005   0.000   0.000
  0.000   0.000   0.000  -0.004   0.000   0.000   0.005   0.000
  0.000   0.000   0.000   0.000  -0.004   0.000   0.000   0.005
 total augmentation occupancy for first ion, spin component:           1
  1.380  -1.052  -0.001  -0.001   0.001   0.000   0.001   0.000
 -1.052   0.920   0.000   0.001   0.000   0.000  -0.002   0.000
 -0.001   0.000   1.164   0.000  -0.001  -0.758   0.000   0.002
 -0.001   0.001   0.000   1.166   0.000   0.000  -0.760  -0.001
  0.001   0.000  -0.001   0.000   1.165   0.002  -0.001  -0.759
  0.000   0.000  -0.758   0.000   0.002   0.570   0.000  -0.003
  0.001  -0.002   0.000  -0.760  -0.001   0.000   0.571   0.001
  0.000   0.000   0.002  -0.001  -0.759  -0.003   0.001   0.570


----------------------------------------- Iteration    1(   6)  ---------------------------------------


    POTLOK:  cpu time    0.02: real time    0.02
    SETDIJ:  cpu time    0.02: real time    0.02
    EDDIAG:  cpu time    0.03: real time    0.03
  RMM-DIIS:  cpu time    0.02: real time    0.02
    ORTHCH:  cpu time    0.00: real time    0.01
       DOS:  cpu time    0.00: real time    0.00
    CHARGE:  cpu time    0.02: real time    0.02
    MIXING:  cpu time    0.00: real time    0.00
    --------------------------------------------
      LOOP:  cpu time    0.12: real time    0.13

 eigenvalue-minimisations  :    96
 total energy-change (2. order) : 0.1001721E+01  (-0.3198953E-01)
 number of electron      31.9999999 magnetization 
 augmentation part       -1.7684019 magnetization 

 Broyden mixing:
  rms(total) = 0.47400E+00    rms(broyden)= 0.47400E+00
  rms(prec ) = 0.91067E+00
  weight for this iteration     100.00

 eigenvalues of (default mixing * dielectric matrix)
  average eigenvalue GAMMA=   2.4573
  2.4573

 Free energy of the ion-electron system (eV)
  ---------------------------------------------------
  alpha Z        PSCENC =        12.68944982
  Ewald energy   TEWEN  =      -907.56696865
  -1/2 Hartree   DENC   =       -54.68260996
  -exchange  EXHF       =         0.00000000
  -V(xc)+E(xc)   XCENC  =       -75.44940624
  PAW double counting   =       286.06086152     -144.35917600
  entropy T*S    EENTRO =         0.00000000
  eigenvalues    EBANDS =        23.31798694
  atomic energy  EATOM  =       826.37398168
  ---------------------------------------------------
  free energy    TOTEN  =       -33.61588089 eV

  energy without entropy =      -33.61588089  energy(sigma->0) =      -33.61588089


--------------------------------------------------------------------------------------------------------




 average (electrostatic) potential at core
  the test charge radii are     0.9892
  (the norm of the test charge is              1.0000)
       1 -83.8339       2 -83.8321       3 -83.8309       4 -83.8323       5 -83.8338
       6 -83.8320       7 -83.8327       8 -83.8349
 
 
 
 E-fermi :   5.5621     XC(G=0):  -9.4504     alpha+bet :-11.7379


 k-point   1 :       0.0000    0.0000    0.0000
  band No.  band energies     occupation 
      1      -6.3787      2.00000
      2      -2.3459      2.00000
      3      -2.3443      2.00000
      4      -2.3378      2.00000
      5      -2.3261      2.00000
      6      -2.3221      2.00000
      7      -2.3187      2.00000
      8       2.6315      2.00000
      9       2.6338      2.00000
     10       2.6348      2.00000
     11       2.6431      2.00000
     12       2.6436      2.00000
     13       2.6457      2.00000
     14       5.3738      2.00000
     15       5.4127      2.00000
     16       5.4137      2.00000
     17       6.2586      0.00000
     18       6.2591      0.00000
     19       6.2618      0.00000
     20       6.2729      0.00000
     21       6.2756      0.00000
     22       6.2778      0.00000
     23       8.0489      0.00000
     24       8.0495      0.00000
     25       8.0721      0.00000
     26       8.4862      0.00000
     27      13.3050      0.00000
     28      13.3569      0.00000
     29      13.3569      0.00000
     30      15.3740      0.00000
     31      15.3771      0.00000
     32      15.3793      0.00000
     33      15.3823      0.00000
     34      15.3839      0.00000
     35      15.3890      0.00000
     36      16.5342      0.00000
     37      16.5410      0.00000
     38      16.5442      0.00000
     39      16.5476      0.00000
     40      16.5534      0.00000
     41      16.5547      0.00000
     42      16.7401      0.00000
     43      16.7408      0.00000
     44      16.7655      0.00000
     45      18.1506      0.00000
     46      18.1532      0.00000
     47      18.1606      0.00000
     48      18.1782      0.00000


--------------------------------------------------------------------------------------------------------


 soft charge-density along one line, spin component           1
         0         1         2         3         4         5         6         7         8         9
 total charge-density along one line
 
 pseudopotential strength for first ion, spin component:           1
 18.635  -0.001   0.000   0.000   0.000   0.000   0.000   0.000
 -0.001   0.006   0.000   0.000   0.000   0.000   0.000   0.000
  0.000   0.000   4.221   0.000   0.000  -0.004   0.000   0.000
  0.000   0.000   0.000   4.221   0.000   0.000  -0.004   0.000
  0.000   0.000   0.000   0.000   4.221   0.000   0.000  -0.004
  0.000   0.000  -0.004   0.000   0.000   0.005   0.000   0.000
  0.000   0.000   0.000  -0.004   0.000   0.000   0.005   0.000
  0.000   0.000   0.000   0.000  -0.004   0.000   0.000   0.005
 total augmentation occupancy for first ion, spin component:           1
  1.351  -1.091  -0.001  -0.001   0.000   0.000   0.002  -0.001
 -1.091   0.999   0.000   0.001   0.000   0.000  -0.002   0.000
 -0.001   0.000   1.146   0.000  -0.001  -0.782   0.000   0.002
 -0.001   0.001   0.000   1.148   0.000   0.000  -0.783  -0.001
  0.000   0.000  -0.001   0.000   1.147   0.002  -0.001  -0.782
  0.000   0.000  -0.782   0.000   0.002   0.608   0.000  -0.003
  0.002  -0.002   0.000  -0.783  -0.001   0.000   0.609   0.001
 -0.001   0.000   0.002  -0.001  -0.782  -0.003   0.001   0.609


----------------------------------------- Iteration    1(   7)  ---------------------------------------


    POTLOK:  cpu time    0.02: real time    0.02
    SETDIJ:  cpu time    0.02: real time    0.02
    EDDIAG:  cpu time    0.02: real time    0.02
  RMM-DIIS:  cpu time    0.02: real time    0.02
    ORTHCH:  cpu time    0.00: real time    0.01
       DOS:  cpu time    0.00: real time    0.00
    CHARGE:  cpu time    0.02: real time    0.02
    MIXING:  cpu time    0.00: real time    0.00
    --------------------------------------------
      LOOP:  cpu time    0.11: real time    0.11

 eigenvalue-minimisations  :    96
 total energy-change (2. order) : 0.4246690E+00  (-0.7390132E-01)
 number of electron      31.9999999 magnetization 
 augmentation part       -1.7214483 magnetization 

 Broyden mixing:
  rms(total) = 0.46249E-01    rms(broyden)= 0.46240E-01
  rms(prec ) = 0.78452E-01
  weight for this iteration     100.00

 eigenvalues of (default mixing * dielectric matrix)
  average eigenvalue GAMMA=   2.5302
  2.5302  2.5302

 Free energy of the ion-electron system (eV)
  ---------------------------------------------------
  alpha Z        PSCENC =        12.68944982
  Ewald energy   TEWEN  =      -907.56696865
  -1/2 Hartree   DENC   =       -70.51393950
  -exchange  EXHF       =         0.00000000
  -V(xc)+E(xc)   XCENC  =       -73.00920863
  PAW double counting   =       313.72541912     -172.73745700
  entropy T*S    EENTRO =         0.00000000
  eigenvalues    EBANDS =        37.84751124
  atomic energy  EATOM  =       826.37398168
  ---------------------------------------------------
  free energy    TOTEN  =       -33.19121191 eV

  energy without entropy =      -33.19121191  energy(sigma->0) =      -33.19121191


--------------------------------------------------------------------------------------------------------




 average (electrostatic) potential at core
  the test charge radii are     0.9892
  (the norm of the test charge is              1.0000)
       1 -83.1460       2 -83.1452       3 -83.1446       4 -83.1452       5 -83.1462
       6 -83.1444       7 -83.1457       8 -83.1468
 
 
 
 E-fermi :   6.0964     XC(G=0):  -9.2018     alpha+bet :-11.7379


 k-point   1 :       0.0000    0.0000    0.0000
  band No.  band energies     occupation 
      1      -5.9621      2.00000
      2      -1.8786      2.00000
      3      -1.8770      2.00000
      4      -1.8716      2.00000
      5      -1.8595      2.00000
      6      -1.8560      2.00000
      7      -1.8533      2.00000
      8       3.0449      2.00000
      9       3.0468      2.00000
     10       3.0477      2.00000
     11       3.0554      2.00000
     12       3.0557      2.00000
     13       3.0574      2.00000
     14       5.8991      2.00000
     15       5.9369      2.00000
     16       5.9379      2.00000
     17       6.5174      0.00000
     18       6.5177      0.00000
     19       6.5201      0.00000
     20       6.5314      0.00000
     21       6.5337      0.00000
     22       6.5355      0.00000
     23       8.3739      0.00000
     24       8.3745      0.00000
     25       8.3975      0.00000
     26       9.0452      0.00000
     27      13.6013      0.00000
     28      13.6205      0.00000
     29      13.6205      0.00000
     30      15.8242      0.00000
     31      15.8273      0.00000
     32      15.8290      0.00000
     33      15.8326      0.00000
     34      15.8341      0.00000
     35      15.8385      0.00000
     36      16.8945      0.00000
     37      16.8951      0.00000
     38      16.9206      0.00000
     39      16.9551      0.00000
     40      16.9607      0.00000
     41      16.9633      0.00000
     42      16.9667      0.00000
     43      16.9717      0.00000
     44      16.9732      0.00000
     45      18.6464      0.00000
     46      18.6504      0.00000
     47      18.6639      0.00000
     48      18.6744      0.00000


--------------------------------------------------------------------------------------------------------


 soft charge-density along one line, spin component           1
         0         1         2         3         4         5         6         7         8         9
 total charge-density along one line
 
 pseudopotential strength for first ion, spin component:           1
 18.596  -0.001   0.000   0.000   0.000   0.000   0.000   0.000
 -0.001   0.006   0.000   0.000   0.000   0.000   0.000   0.000
  0.000   0.000   4.227   0.000   0.000  -0.005   0.000   0.000
  0.000   0.000   0.000   4.227   0.000   0.000  -0.005   0.000
  0.000   0.000   0.000   0.000   4.227   0.000   0.000  -0.005
  0.000   0.000  -0.005   0.000   0.000   0.005   0.000   0.000
  0.000   0.000   0.000  -0.005   0.000   0.000   0.005   0.000
  0.000   0.000   0.000   0.000  -0.005   0.000   0.000   0.005
 total augmentation occupancy for first ion, spin component:           1
  1.315  -1.113  -0.001  -0.002   0.000   0.000   0.002  -0.001
 -1.113   1.059  -0.001   0.001   0.000   0.000  -0.002   0.000
 -0.001  -0.001   1.121   0.000  -0.001  -0.805   0.000   0.002
 -0.002   0.001   0.000   1.123   0.000   0.000  -0.806  -0.001
  0.000   0.000  -0.001   0.000   1.122   0.002  -0.001  -0.805
  0.000   0.000  -0.805   0.000   0.002   0.652   0.000  -0.003
  0.002  -0.002   0.000  -0.806  -0.001   0.000   0.653   0.001
 -0.001   0.000   0.002  -0.001  -0.805  -0.003   0.001   0.653


----------------------------------------- Iteration    1(   8)  ---------------------------------------


    POTLOK:  cpu time    0.02: real time    0.02
    SETDIJ:  cpu time    0.02: real time    0.02
    EDDIAG:  cpu time    0.02: real time    0.02
  RMM-DIIS:  cpu time    0.02: real time    0.02
    ORTHCH:  cpu time    0.00: real time    0.00
       DOS:  cpu time    0.00: real time    0.00
    CHARGE:  cpu time    0.02: real time    0.02
    MIXING:  cpu time    0.00: real time    0.00
    --------------------------------------------
      LOOP:  cpu time    0.11: real time    0.11

 eigenvalue-minimisations  :    96
 total energy-change (2. order) :-0.3198469E-01  (-0.2162590E-02)
 number of electron      31.9999999 magnetization 
 augmentation part       -1.7275469 magnetization 

 Broyden mixing:
  rms(total) = 0.74816E-02    rms(broyden)= 0.74811E-02
  rms(prec ) = 0.17939E-01
  weight for this iteration     100.00

 eigenvalues of (default mixing * dielectric matrix)
  average eigenvalue GAMMA=   2.1210
  1.2731  2.8647  2.2251

 Free energy of the ion-electron system (eV)
  ---------------------------------------------------
  alpha Z        PSCENC =        12.68944982
  Ewald energy   TEWEN  =      -907.56696865
  -1/2 Hartree   DENC   =       -70.39880309
  -exchange  EXHF       =         0.00000000
  -V(xc)+E(xc)   XCENC  =       -72.96565073
  PAW double counting   =       307.36155473     -166.18873619
  entropy T*S    EENTRO =         0.00000000
  eigenvalues    EBANDS =        37.47197584
  atomic energy  EATOM  =       826.37398168
  ---------------------------------------------------
  free energy    TOTEN  =       -33.22319661 eV

  energy without entropy =      -33.22319661  energy(sigma->0) =      -33.22319661


--------------------------------------------------------------------------------------------------------




 average (electrostatic) potential at core
  the test charge radii are     0.9892
  (the norm of the test charge is              1.0000)
       1 -83.2501       2 -83.2475       3 -83.2457       4 -83.2476       5 -83.2500
       6 -83.2470       7 -83.2484       8 -83.2518
 
 
 
 E-fermi :   6.0351     XC(G=0):  -9.1504     alpha+bet :-11.7379


 k-point   1 :       0.0000    0.0000    0.0000
  band No.  band energies     occupation 
      1      -5.9632      2.00000
      2      -1.8907      2.00000
      3      -1.8891      2.00000
      4      -1.8830      2.00000
      5      -1.8711      2.00000
      6      -1.8673      2.00000
      7      -1.8642      2.00000
      8       3.0331      2.00000
      9       3.0353      2.00000
     10       3.0361      2.00000
     11       3.0440      2.00000
     12       3.0443      2.00000
     13       3.0462      2.00000
     14       5.8829      2.00000
     15       5.9209      2.00000
     16       5.9219      2.00000
     17       6.5678      0.00000
     18       6.5687      0.00000
     19       6.5710      0.00000
     20       6.5824      0.00000
     21       6.5847      0.00000
     22       6.5867      0.00000
     23       8.3633      0.00000
     24       8.3639      0.00000
     25       8.3868      0.00000
     26       9.0381      0.00000
     27      13.6065      0.00000
     28      13.6065      0.00000
     29      13.7784      0.00000
     30      15.8094      0.00000
     31      15.8127      0.00000
     32      15.8144      0.00000
     33      15.8177      0.00000
     34      15.8193      0.00000
     35      15.8240      0.00000
     36      16.9312      0.00000
     37      16.9321      0.00000
     38      16.9574      0.00000
     39      16.9615      0.00000
     40      16.9672      0.00000
     41      16.9697      0.00000
     42      16.9731      0.00000
     43      16.9784      0.00000
     44      16.9801      0.00000
     45      18.6817      0.00000
     46      18.6870      0.00000
     47      18.7020      0.00000
     48      18.7120      0.00000


--------------------------------------------------------------------------------------------------------


 soft charge-density along one line, spin component           1
         0         1         2         3         4         5         6         7         8         9
 total charge-density along one line
 
 pseudopotential strength for first ion, spin component:           1
 18.599  -0.001   0.000   0.000   0.000   0.000   0.000   0.000
 -0.001   0.006   0.000   0.000   0.000   0.000   0.000   0.000
  0.000   0.000   4.224   0.000   0.000  -0.005   0.000   0.000
  0.000   0.000   0.000   4.224   0.000   0.000  -0.005   0.000
  0.000   0.000   0.000   0.000   4.224   0.000   0.000  -0.005
  0.000   0.000  -0.005   0.000   0.000   0.005   0.000   0.000
  0.000   0.000   0.000  -0.005   0.000   0.000   0.005   0.000
  0.000   0.000   0.000   0.000  -0.005   0.000   0.000   0.005
 total augmentation occupancy for first ion, spin component:           1
  1.320  -1.093  -0.001  -0.002   0.000   0.001   0.002   0.000
 -1.093   1.022  -0.001   0.001   0.000   0.000  -0.002   0.000
 -0.001  -0.001   1.122   0.000  -0.001  -0.801   0.000   0.002
 -0.002   0.001   0.000   1.124   0.000   0.000  -0.802  -0.001
  0.000   0.000  -0.001   0.000   1.123   0.002  -0.001  -0.801
  0.001   0.000  -0.801   0.000   0.002   0.647   0.000  -0.003
  0.002  -0.002   0.000  -0.802  -0.001   0.000   0.648   0.001
  0.000   0.000   0.002  -0.001  -0.801  -0.003   0.001   0.647


----------------------------------------- Iteration    1(   9)  ---------------------------------------


    POTLOK:  cpu time    0.02: real time    0.02
    SETDIJ:  cpu time    0.02: real time    0.02
    EDDIAG:  cpu time    0.03: real time    0.03
  RMM-DIIS:  cpu time    0.04: real time    0.04
    ORTHCH:  cpu time    0.00: real time    0.01
       DOS:  cpu time    0.00: real time    0.00
    CHARGE:  cpu time    0.02: real time    0.02
    MIXING:  cpu time    0.00: real time    0.00
    --------------------------------------------
      LOOP:  cpu time    0.14: real time    0.14

 eigenvalue-minimisations  :   107
 total energy-change (2. order) :-0.1129494E-02  (-0.1261692E-03)
 number of electron      31.9999999 magnetization 
 augmentation part       -1.7274614 magnetization 

 Broyden mixing:
  rms(total) = 0.41700E-02    rms(broyden)= 0.41699E-02
  rms(prec ) = 0.68348E-02
  weight for this iteration     100.00

 eigenvalues of (default mixing * dielectric matrix)
  average eigenvalue GAMMA=   2.3124
  0.9902  3.2769  2.6962  2.2861

 Free energy of the ion-electron system (eV)
  ---------------------------------------------------
  alpha Z        PSCENC =        12.68944982
  Ewald energy   TEWEN  =      -907.56696865
  -1/2 Hartree   DENC   =       -70.79544595
  -exchange  EXHF       =         0.00000000
  -V(xc)+E(xc)   XCENC  =       -72.90643782
  PAW double counting   =       307.71459296     -166.55224142
  entropy T*S    EENTRO =         0.00000000
  eigenvalues    EBANDS =        37.81874328
  atomic energy  EATOM  =       826.37398168
  ---------------------------------------------------
  free energy    TOTEN  =       -33.22432610 eV

  energy without entropy =      -33.22432610  energy(sigma->0) =      -33.22432610


--------------------------------------------------------------------------------------------------------




 average (electrostatic) potential at core
  the test charge radii are     0.9892
  (the norm of the test charge is              1.0000)
       1 -83.2355       2 -83.2334       3 -83.2319       4 -83.2335       5 -83.2352
       6 -83.2333       7 -83.2340       8 -83.2367
 
 
 
 E-fermi :   6.0497     XC(G=0):  -9.1362     alpha+bet :-11.7379


 k-point   1 :       0.0000    0.0000    0.0000
  band No.  band energies     occupation 
      1      -5.9519      2.00000
      2      -1.8793      2.00000
      3      -1.8777      2.00000
      4      -1.8720      2.00000
      5      -1.8600      2.00000
      6      -1.8563      2.00000
      7      -1.8533      2.00000
      8       3.0431      2.00000
      9       3.0451      2.00000
     10       3.0459      2.00000
     11       3.0537      2.00000
     12       3.0541      2.00000
     13       3.0560      2.00000
     14       5.8951      2.00000
     15       5.9329      2.00000
     16       5.9339      2.00000
     17       6.5818      0.00000
     18       6.5828      0.00000
     19       6.5851      0.00000
     20       6.5964      0.00000
     21       6.5987      0.00000
     22       6.6008      0.00000
     23       8.3710      0.00000
     24       8.3715      0.00000
     25       8.3944      0.00000
     26       9.0526      0.00000
     27      13.6117      0.00000
     28      13.6117      0.00000
     29      13.8106      0.00000
     30      15.8200      0.00000
     31      15.8232      0.00000
     32      15.8249      0.00000
     33      15.8283      0.00000
     34      15.8299      0.00000
     35      15.8345      0.00000
     36      16.9412      0.00000
     37      16.9421      0.00000
     38      16.9674      0.00000
     39      16.9737      0.00000
     40      16.9793      0.00000
     41      16.9818      0.00000
     42      16.9852      0.00000
     43      16.9904      0.00000
     44      16.9921      0.00000
     45      18.6994      0.00000
     46      18.7047      0.00000
     47      18.7205      0.00000
     48      18.7300      0.00000


--------------------------------------------------------------------------------------------------------


 soft charge-density along one line, spin component           1
         0         1         2         3         4         5         6         7         8         9
 total charge-density along one line
 
 pseudopotential strength for first ion, spin component:           1
 18.598  -0.001   0.000   0.000   0.000   0.000   0.000   0.000
 -0.001   0.006   0.000   0.000   0.000   0.000   0.000   0.000
  0.000   0.000   4.224   0.000   0.000  -0.005   0.000   0.000
  0.000   0.000   0.000   4.224   0.000   0.000  -0.005   0.000
  0.000   0.000   0.000   0.000   4.224   0.000   0.000  -0.005
  0.000   0.000  -0.005   0.000   0.000   0.005   0.000   0.000
  0.000   0.000   0.000  -0.005   0.000   0.000   0.005   0.000
  0.000   0.000   0.000   0.000  -0.005   0.000   0.000   0.005
 total augmentation occupancy for first ion, spin component:           1
  1.320  -1.088  -0.001  -0.002   0.000   0.001   0.002   0.000
 -1.088   1.013  -0.001   0.001   0.000   0.000  -0.002   0.000
 -0.001  -0.001   1.122   0.000  -0.001  -0.800   0.000   0.002
 -0.002   0.001   0.000   1.124   0.000   0.000  -0.802  -0.001
  0.000   0.000  -0.001   0.000   1.123   0.002  -0.001  -0.801
  0.001   0.000  -0.800   0.000   0.002   0.647   0.000  -0.003
  0.002  -0.002   0.000  -0.802  -0.001   0.000   0.648   0.001
  0.000   0.000   0.002  -0.001  -0.801  -0.003   0.001   0.647


----------------------------------------- Iteration    1(  10)  ---------------------------------------


    POTLOK:  cpu time    0.02: real time    0.02
    SETDIJ:  cpu time    0.02: real time    0.02
    EDDIAG:  cpu time    0.02: real time    0.02
  RMM-DIIS:  cpu time    0.03: real time    0.03
    ORTHCH:  cpu time    0.00: real time    0.01
       DOS:  cpu time    0.00: real time    0.00
    CHARGE:  cpu time    0.02: real time    0.02
    MIXING:  cpu time    0.00: real time    0.00
    --------------------------------------------
      LOOP:  cpu time    0.12: real time    0.12

 eigenvalue-minimisations  :   104
 total energy-change (2. order) :-0.1840755E-03  (-0.2504494E-04)
 number of electron      31.9999999 magnetization 
 augmentation part       -1.7273311 magnetization 

 Broyden mixing:
  rms(total) = 0.51293E-03    rms(broyden)= 0.51253E-03
  rms(prec ) = 0.99456E-03
  weight for this iteration     100.00

 eigenvalues of (default mixing * dielectric matrix)
  average eigenvalue GAMMA=   2.0339
  3.0962  2.6291  2.1736  0.9765  1.2940

 Free energy of the ion-electron system (eV)
  ---------------------------------------------------
  alpha Z        PSCENC =        12.68944982
  Ewald energy   TEWEN  =      -907.56696865
  -1/2 Hartree   DENC   =       -70.84875602
  -exchange  EXHF       =         0.00000000
  -V(xc)+E(xc)   XCENC  =       -72.90958941
  PAW double counting   =       307.80720645     -166.65126181
  entropy T*S    EENTRO =         0.00000000
  eigenvalues    EBANDS =        37.88142777
  atomic energy  EATOM  =       826.37398168
  ---------------------------------------------------
  free energy    TOTEN  =       -33.22451018 eV

  energy without entropy =      -33.22451018  energy(sigma->0) =      -33.22451018


--------------------------------------------------------------------------------------------------------




 average (electrostatic) potential at core
  the test charge radii are     0.9892
  (the norm of the test charge is              1.0000)
       1 -83.2264       2 -83.2248       3 -83.2238       4 -83.2249       5 -83.2261
       6 -83.2247       7 -83.2252       8 -83.2272
 
 
 
 E-fermi :   6.0543     XC(G=0):  -9.1306     alpha+bet :-11.7379


 k-point   1 :       0.0000    0.0000    0.0000
  band No.  band energies     occupation 
      1      -5.9495      2.00000
      2      -1.8771      2.00000
      3      -1.8755      2.00000
      4      -1.8699      2.00000
      5      -1.8579      2.00000
      6      -1.8543      2.00000
      7      -1.8514      2.00000
      8       3.0448      2.00000
      9       3.0468      2.00000
     10       3.0476      2.00000
     11       3.0554      2.00000
     12       3.0557      2.00000
     13       3.0576      2.00000
     14       5.8973      2.00000
     15       5.9350      2.00000
     16       5.9360      2.00000
     17       6.5871      0.00000
     18       6.5882      0.00000
     19       6.5905      0.00000
     20       6.6017      0.00000
     21       6.6041      0.00000
     22       6.6062      0.00000
     23       8.3719      0.00000
     24       8.3725      0.00000
     25       8.3953      0.00000
     26       9.0563      0.00000
     27      13.6117      0.00000
     28      13.6118      0.00000
     29      13.8267      0.00000
     30      15.8219      0.00000
     31      15.8250      0.00000
     32      15.8268      0.00000
     33      15.8301      0.00000
     34      15.8317      0.00000
     35      15.8363      0.00000
     36      16.9453      0.00000
     37      16.9462      0.00000
     38      16.9714      0.00000
     39      16.9766      0.00000
     40      16.9821      0.00000
     41      16.9845      0.00000
     42      16.9879      0.00000
     43      16.9931      0.00000
     44      16.9947      0.00000
     45      18.7069      0.00000
     46      18.7120      0.00000
     47      18.7273      0.00000
     48      18.7370      0.00000


--------------------------------------------------------------------------------------------------------


 soft charge-density along one line, spin component           1
         0         1         2         3         4         5         6         7         8         9
 total charge-density along one line
 
 pseudopotential strength for first ion, spin component:           1
 18.597  -0.001   0.000   0.000   0.000   0.000   0.000   0.000
 -0.001   0.006   0.000   0.000   0.000   0.000   0.000   0.000
  0.000   0.000   4.224   0.000   0.000  -0.005   0.000   0.000
  0.000   0.000   0.000   4.224   0.000   0.000  -0.005   0.000
  0.000   0.000   0.000   0.000   4.224   0.000   0.000  -0.005
  0.000   0.000  -0.005   0.000   0.000   0.005   0.000   0.000
  0.000   0.000   0.000  -0.005   0.000   0.000   0.005   0.000
  0.000   0.000   0.000   0.000  -0.005   0.000   0.000   0.005
 total augmentation occupancy for first ion, spin component:           1
  1.320  -1.088  -0.001  -0.002   0.000   0.001   0.002   0.000
 -1.088   1.014  -0.001   0.001   0.000   0.000  -0.002   0.000
 -0.001  -0.001   1.122   0.000  -0.001  -0.801   0.000   0.002
 -0.002   0.001   0.000   1.124   0.000   0.000  -0.802  -0.001
  0.000   0.000  -0.001   0.000   1.123   0.002  -0.001  -0.801
  0.001   0.000  -0.801   0.000   0.002   0.648   0.000  -0.003
  0.002  -0.002   0.000  -0.802  -0.001   0.000   0.649   0.001
  0.000   0.000   0.002  -0.001  -0.801  -0.003   0.001   0.648


----------------------------------------- Iteration    1(  11)  ---------------------------------------


    POTLOK:  cpu time    0.02: real time    0.02
    SETDIJ:  cpu time    0.02: real time    0.02
    EDDIAG:  cpu time    0.02: real time    0.02
  RMM-DIIS:  cpu time    0.05: real time    0.05
    ORTHCH:  cpu time    0.01: real time    0.01
       DOS:  cpu time    0.00: real time    0.00
    CHARGE:  cpu time    0.02: real time    0.02
    MIXING:  cpu time    0.00: real time    0.00
    --------------------------------------------
      LOOP:  cpu time    0.14: real time    0.14

 eigenvalue-minimisations  :   116
 total energy-change (2. order) : 0.4162773E-05  (-0.3740089E-06)
 number of electron      31.9999999 magnetization 
 augmentation part       -1.7274354 magnetization 

 Broyden mixing:
  rms(total) = 0.14868E-03    rms(broyden)= 0.14863E-03
  rms(prec ) = 0.28505E-03
  weight for this iteration     100.00

 eigenvalues of (default mixing * dielectric matrix)
  average eigenvalue GAMMA=   1.9830
  3.2089  2.7036  2.1119  1.9290  0.9723  0.9723

 Free energy of the ion-electron system (eV)
  ---------------------------------------------------
  alpha Z        PSCENC =        12.68944982
  Ewald energy   TEWEN  =      -907.56696865
  -1/2 Hartree   DENC   =       -70.82832295
  -exchange  EXHF       =         0.00000000
  -V(xc)+E(xc)   XCENC  =       -72.91085362
  PAW double counting   =       307.73617105     -166.57741157
  entropy T*S    EENTRO =         0.00000000
  eigenvalues    EBANDS =        37.85944823
  atomic energy  EATOM  =       826.37398168
  ---------------------------------------------------
  free energy    TOTEN  =       -33.22450602 eV

  energy without entropy =      -33.22450602  energy(sigma->0) =      -33.22450602


--------------------------------------------------------------------------------------------------------




 average (electrostatic) potential at core
  the test charge radii are     0.9892
  (the norm of the test charge is              1.0000)
       1 -83.2289       2 -83.2270       3 -83.2257       4 -83.2271       5 -83.2287
       6 -83.2269       7 -83.2275       8 -83.2299
 
 
 
 E-fermi :   6.0539     XC(G=0):  -9.1314     alpha+bet :-11.7379


 k-point   1 :       0.0000    0.0000    0.0000
  band No.  band energies     occupation 
      1      -5.9502      2.00000
      2      -1.8779      2.00000
      3      -1.8763      2.00000
      4      -1.8706      2.00000
      5      -1.8586      2.00000
      6      -1.8550      2.00000
      7      -1.8520      2.00000
      8       3.0442      2.00000
      9       3.0462      2.00000
     10       3.0470      2.00000
     11       3.0548      2.00000
     12       3.0551      2.00000
     13       3.0570      2.00000
     14       5.8965      2.00000
     15       5.9343      2.00000
     16       5.9352      2.00000
     17       6.5864      0.00000
     18       6.5874      0.00000
     19       6.5897      0.00000
     20       6.6010      0.00000
     21       6.6033      0.00000
     22       6.6054      0.00000
     23       8.3715      0.00000
     24       8.3720      0.00000
     25       8.3949      0.00000
     26       9.0553      0.00000
     27      13.6115      0.00000
     28      13.6115      0.00000
     29      13.8249      0.00000
     30      15.8211      0.00000
     31      15.8243      0.00000
     32      15.8261      0.00000
     33      15.8294      0.00000
     34      15.8310      0.00000
     35      15.8356      0.00000
     36      16.9447      0.00000
     37      16.9456      0.00000
     38      16.9709      0.00000
     39      16.9758      0.00000
     40      16.9814      0.00000
     41      16.9838      0.00000
     42      16.9872      0.00000
     43      16.9924      0.00000
     44      16.9941      0.00000
     45      18.7079      0.00000
     46      18.7125      0.00000
     47      18.7267      0.00000
     48      18.7368      0.00000


--------------------------------------------------------------------------------------------------------


 soft charge-density along one line, spin component           1
         0         1         2         3         4         5         6         7         8         9
 total charge-density along one line
 
 pseudopotential strength for first ion, spin component:           1
 18.597  -0.001   0.000   0.000   0.000   0.000   0.000   0.000
 -0.001   0.006   0.000   0.000   0.000   0.000   0.000   0.000
  0.000   0.000   4.224   0.000   0.000  -0.005   0.000   0.000
  0.000   0.000   0.000   4.224   0.000   0.000  -0.005   0.000
  0.000   0.000   0.000   0.000   4.224   0.000   0.000  -0.005
  0.000   0.000  -0.005   0.000   0.000   0.005   0.000   0.000
  0.000   0.000   0.000  -0.005   0.000   0.000   0.005   0.000
  0.000   0.000   0.000   0.000  -0.005   0.000   0.000   0.005
 total augmentation occupancy for first ion, spin component:           1
  1.320  -1.087  -0.001  -0.002   0.000   0.001   0.002   0.000
 -1.087   1.013  -0.001   0.001   0.000   0.000  -0.002   0.000
 -0.001  -0.001   1.122   0.000  -0.001  -0.801   0.000   0.002
 -0.002   0.001   0.000   1.124   0.000   0.000  -0.802  -0.001
  0.000   0.000  -0.001   0.000   1.123   0.002  -0.001  -0.801
  0.001   0.000  -0.801   0.000   0.002   0.648   0.000  -0.003
  0.002  -0.002   0.000  -0.802  -0.001   0.000   0.649   0.001
  0.000   0.000   0.002  -0.001  -0.801  -0.003   0.001   0.648


----------------------------------------- Iteration    1(  12)  ---------------------------------------


    POTLOK:  cpu time    0.02: real time    0.02
    SETDIJ:  cpu time    0.01: real time    0.02
    EDDIAG:  cpu time    0.02: real time    0.02
  RMM-DIIS:  cpu time    0.05: real time    0.05
    ORTHCH:  cpu time    0.01: real time    0.01
       DOS:  cpu time    0.00: real time    0.00
    CHARGE:  cpu time    0.02: real time    0.02
    MIXING:  cpu time    0.00: real time    0.00
    --------------------------------------------
      LOOP:  cpu time    0.14: real time    0.14

 eigenvalue-minimisations  :   126
 total energy-change (2. order) :-0.4661773E-06  (-0.4472624E-07)
 number of electron      31.9999999 magnetization 
 augmentation part       -1.7274262 magnetization 

 Broyden mixing:
  rms(total) = 0.57633E-04    rms(broyden)= 0.57604E-04
  rms(prec ) = 0.83628E-04
  weight for this iteration     100.00

 eigenvalues of (default mixing * dielectric matrix)
  average eigenvalue GAMMA=   1.9919
  3.1946  2.7323  2.4603  2.0631  1.5366  0.9962  0.9606

 Free energy of the ion-electron system (eV)
  ---------------------------------------------------
  alpha Z        PSCENC =        12.68944982
  Ewald energy   TEWEN  =      -907.56696865
  -1/2 Hartree   DENC   =       -70.83210264
  -exchange  EXHF       =         0.00000000
  -V(xc)+E(xc)   XCENC  =       -72.91081119
  PAW double counting   =       307.74117916     -166.58251573
  entropy T*S    EENTRO =         0.00000000
  eigenvalues    EBANDS =        37.86328107
  atomic energy  EATOM  =       826.37398168
  ---------------------------------------------------
  free energy    TOTEN  =       -33.22450648 eV

  energy without entropy =      -33.22450648  energy(sigma->0) =      -33.22450648


--------------------------------------------------------------------------------------------------------




 average (electrostatic) potential at core
  the test charge radii are     0.9892
  (the norm of the test charge is              1.0000)
       1 -83.2285       2 -83.2265       3 -83.2252       4 -83.2266       5 -83.2283
       6 -83.2264       7 -83.2271       8 -83.2296
 
 
 
 E-fermi :   6.0546     XC(G=0):  -9.1311     alpha+bet :-11.7379


 k-point   1 :       0.0000    0.0000    0.0000
  band No.  band energies     occupation 
      1      -5.9500      2.00000
      2      -1.8778      2.00000
      3      -1.8762      2.00000
      4      -1.8705      2.00000
      5      -1.8585      2.00000
      6      -1.8548      2.00000
      7      -1.8518      2.00000
      8       3.0443      2.00000
      9       3.0463      2.00000
     10       3.0471      2.00000
     11       3.0549      2.00000
     12       3.0553      2.00000
[...]
    MIXING:  cpu time    0.00: real time    0.00
    --------------------------------------------
      LOOP:  cpu time    0.14: real time    0.15

 Broyden mixing:
  rms(total) = 0.65486E-02    rms(broyden)= 0.65484E-02
  rms(prec ) = 0.11203E-01
  weight for this iteration     100.00

 eigenvalues of (default mixing * dielectric matrix)
  average eigenvalue GAMMA=   2.0752
  3.0283  2.4872  1.1329  1.6523

 Free energy of the ion-electron system (eV)
  ---------------------------------------------------
  -1/2 Hartree   DENC   =        -4.61549565
  -V(xc)+E(xc)   XCENC  =         0.95028261
  PAW double counting   =         3.09871462       -3.14805270
  entropy T*S    EENTRO =         0.00000000
  eigenvalues    EBANDS =       -24.52869233
  ---------------------------------------------------
  free energy    TOTEN  =       -28.24324346 eV

  energy without entropy =      -28.24324346


----------------------------------------- Iteration    3(   7)  ---------------------------------------


   POT+DIJ:  cpu time    0.07: real time    0.07
    HAMIL1:  cpu time    0.00: real time    0.00
    LRDIAG:  cpu time    0.01: real time    0.01
    LRDIIS:  cpu time    0.02: real time    0.02
    LRDIAG:  cpu time    0.01: real time    0.01
    MIXING:  cpu time    0.00: real time    0.00
    --------------------------------------------
      LOOP:  cpu time    0.14: real time    0.15

 Broyden mixing:
  rms(total) = 0.54969E-03    rms(broyden)= 0.54881E-03
  rms(prec ) = 0.10485E-02
  weight for this iteration     100.00

 eigenvalues of (default mixing * dielectric matrix)
  average eigenvalue GAMMA=   1.9532
  3.0891  2.4142  1.1174  1.6756  1.4695

 Free energy of the ion-electron system (eV)
  ---------------------------------------------------
  -1/2 Hartree   DENC   =        -4.62540812
  -V(xc)+E(xc)   XCENC  =         0.95719335
  PAW double counting   =         3.06470123       -3.11352954
  entropy T*S    EENTRO =         0.00000000
  eigenvalues    EBANDS =       -24.56232006
  ---------------------------------------------------
  free energy    TOTEN  =       -28.27936315 eV

  energy without entropy =      -28.27936315


----------------------------------------- Iteration    3(   8)  ---------------------------------------


   POT+DIJ:  cpu time    0.07: real time    0.07
    HAMIL1:  cpu time    0.00: real time    0.00
    LRDIAG:  cpu time    0.01: real time    0.01
    LRDIIS:  cpu time    0.02: real time    0.02
    LRDIAG:  cpu time    0.01: real time    0.01
    MIXING:  cpu time    0.00: real time    0.00
    --------------------------------------------
      LOOP:  cpu time    0.15: real time    0.15

 Broyden mixing:
  rms(total) = 0.27127E-03    rms(broyden)= 0.27119E-03
  rms(prec ) = 0.39738E-03
  weight for this iteration     100.00

 eigenvalues of (default mixing * dielectric matrix)
  average eigenvalue GAMMA=   1.9323
  3.0816  2.5153  2.0139  1.6765  1.1087  1.1978

 Free energy of the ion-electron system (eV)
  ---------------------------------------------------
  -1/2 Hartree   DENC   =        -4.62889628
  -V(xc)+E(xc)   XCENC  =         0.95811759
  PAW double counting   =         3.06860771       -3.11750170
  entropy T*S    EENTRO =         0.00000000
  eigenvalues    EBANDS =       -24.56340531
  ---------------------------------------------------
  free energy    TOTEN  =       -28.28307798 eV

  energy without entropy =      -28.28307798


----------------------------------------- Iteration    3(   9)  ---------------------------------------


   POT+DIJ:  cpu time    0.07: real time    0.07
    HAMIL1:  cpu time    0.00: real time    0.01
    LRDIAG:  cpu time    0.01: real time    0.01
    LRDIIS:  cpu time    0.02: real time    0.02
    LRDIAG:  cpu time    0.01: real time    0.01
    MIXING:  cpu time    0.00: real time    0.00
    --------------------------------------------
      LOOP:  cpu time    0.14: real time    0.15

 Broyden mixing:
  rms(total) = 0.10676E-03    rms(broyden)= 0.10674E-03
  rms(prec ) = 0.16048E-03
  weight for this iteration     100.00

 eigenvalues of (default mixing * dielectric matrix)
  average eigenvalue GAMMA=   1.8961
  3.1772  2.7420  2.4000  1.6749  1.2891  1.0991  0.8900

 Free energy of the ion-electron system (eV)
  ---------------------------------------------------
  -1/2 Hartree   DENC   =        -4.62850921
  -V(xc)+E(xc)   XCENC  =         0.95803982
  PAW double counting   =         3.07055831       -3.11948605
  entropy T*S    EENTRO =         0.00000000
  eigenvalues    EBANDS =       -24.56366442
  ---------------------------------------------------
  free energy    TOTEN  =       -28.28306156 eV

  energy without entropy =      -28.28306156


----------------------------------------- Iteration    3(  10)  ---------------------------------------


   POT+DIJ:  cpu time    0.07: real time    0.07
    HAMIL1:  cpu time    0.00: real time    0.00
    LRDIAG:  cpu time    0.01: real time    0.01
    LRDIIS:  cpu time    0.02: real time    0.02
    LRDIAG:  cpu time    0.01: real time    0.01
    MIXING:  cpu time    0.00: real time    0.00
    --------------------------------------------
      LOOP:  cpu time    0.15: real time    0.15

 Broyden mixing:
  rms(total) = 0.11991E-04    rms(broyden)= 0.11976E-04
  rms(prec ) = 0.19610E-04
  weight for this iteration     100.00

 eigenvalues of (default mixing * dielectric matrix)
  average eigenvalue GAMMA=   1.8369
  3.1954  2.7685  2.4530  1.6678  1.3577  0.9526  1.1969  1.1033

 Free energy of the ion-electron system (eV)
  ---------------------------------------------------
  -1/2 Hartree   DENC   =        -4.62862610
  -V(xc)+E(xc)   XCENC  =         0.95808723
  PAW double counting   =         3.07182815       -3.12077788
  entropy T*S    EENTRO =         0.00000000
  eigenvalues    EBANDS =       -24.56391056
  ---------------------------------------------------
  free energy    TOTEN  =       -28.28339915 eV

  energy without entropy =      -28.28339915


----------------------------------------- Iteration    3(  11)  ---------------------------------------


   POT+DIJ:  cpu time    0.07: real time    0.07
    HAMIL1:  cpu time    0.01: real time    0.01
    LRDIAG:  cpu time    0.01: real time    0.01
    LRDIIS:  cpu time    0.02: real time    0.02
    LRDIAG:  cpu time    0.01: real time    0.01
    MIXING:  cpu time    0.00: real time    0.00
    --------------------------------------------
      LOOP:  cpu time    0.15: real time    0.15

 Broyden mixing:
  rms(total) = 0.41278E-05    rms(broyden)= 0.41257E-05
  rms(prec ) = 0.62238E-05
  weight for this iteration     100.00

 eigenvalues of (default mixing * dielectric matrix)
  average eigenvalue GAMMA=   1.8514
  3.2038  2.7835  2.4343  2.1401  1.6686  1.3236  0.9634  1.0470  1.0987

 Free energy of the ion-electron system (eV)
  ---------------------------------------------------
  -1/2 Hartree   DENC   =        -4.62862710
  -V(xc)+E(xc)   XCENC  =         0.95808276
  PAW double counting   =         3.07186228       -3.12081257
  entropy T*S    EENTRO =         0.00000000
  eigenvalues    EBANDS =       -24.56388944
  ---------------------------------------------------
  free energy    TOTEN  =       -28.28338407 eV

  energy without entropy =      -28.28338407


----------------------------------------- Iteration    3(  12)  ---------------------------------------


   POT+DIJ:  cpu time    0.08: real time    0.08
    HAMIL1:  cpu time    0.01: real time    0.01
    LRDIAG:  cpu time    0.01: real time    0.01
    LRDIIS:  cpu time    0.02: real time    0.02
    LRDIAG:  cpu time    0.01: real time    0.01
    MIXING:  cpu time    0.00: real time    0.00
    --------------------------------------------
      LOOP:  cpu time    0.15: real time    0.16

 Broyden mixing:
  rms(total) = 0.13578E-05    rms(broyden)= 0.13574E-05
  rms(prec ) = 0.19305E-05
  weight for this iteration     100.00

 eigenvalues of (default mixing * dielectric matrix)
  average eigenvalue GAMMA=   1.8443
  3.2000  2.8152  2.4366  2.4366  1.6726  1.0012  1.0012  1.1057  1.3867  1.3867

 Free energy of the ion-electron system (eV)
  ---------------------------------------------------
  -1/2 Hartree   DENC   =        -4.62862985
  -V(xc)+E(xc)   XCENC  =         0.95808346
  PAW double counting   =         3.07179279       -3.12074191
  entropy T*S    EENTRO =         0.00000000
  eigenvalues    EBANDS =       -24.56389297
  ---------------------------------------------------
  free energy    TOTEN  =       -28.28338848 eV

  energy without entropy =      -28.28338848


----------------------------------------- Iteration    3(  13)  ---------------------------------------


   POT+DIJ:  cpu time    0.07: real time    0.07
    HAMIL1:  cpu time    0.01: real time    0.01
    LRDIAG:  cpu time    0.01: real time    0.01
    LRDIIS:  cpu time    0.02: real time    0.02
    LRDIAG:  cpu time    0.01: real time    0.01
    MIXING:  cpu time    0.00: real time    0.00
    --------------------------------------------
      LOOP:  cpu time    0.15: real time    0.15

 Broyden mixing:
  rms(total) = 0.33693E-06    rms(broyden)= 0.33684E-06
  rms(prec ) = 0.54585E-06
  weight for this iteration     100.00

 eigenvalues of (default mixing * dielectric matrix)
  average eigenvalue GAMMA=   1.8117
  3.2107  2.8172  2.5875  2.4410  1.6664  1.6664  0.9969  0.9969  1.1053  1.2201
  1.2201

 Free energy of the ion-electron system (eV)
  ---------------------------------------------------
  -1/2 Hartree   DENC   =        -4.62862985
  -V(xc)+E(xc)   XCENC  =         0.95808316
  PAW double counting   =         3.07176399       -3.12071266
  entropy T*S    EENTRO =         0.00000000
  eigenvalues    EBANDS =       -24.56389202
  ---------------------------------------------------
  free energy    TOTEN  =       -28.28338738 eV

  energy without entropy =      -28.28338738


------------------------ aborting loop because EDIFF is reached ----------------------------------------


 change of polarisation eV/A/(eV/A) component  3 :    -0.300     0.297    50.528
 dielectric tensor                  component  3 :    -0.331     0.328    56.864


--------------------------------------------------------------------------------------------------------


    FORLOC:  cpu time    0.00: real time    0.00
    FORNL :  cpu time    0.09: real time    0.09
    STRESS:  cpu time    0.28: real time    0.28
    FORCOR:  cpu time    0.02: real time    0.02
    FORLOC:  cpu time    0.00: real time    0.00
    FORNL :  cpu time    0.08: real time    0.09
    STRESS:  cpu time    0.29: real time    0.29
    FORCOR:  cpu time    0.02: real time    0.02
    FORNLD:  cpu time    0.01: real time    0.02

 PIEZOELECTRIC TENSOR FIELD DIRECTION 3  (e Angst)
 -----------------------------------------------------------------------------
    -0.00767  0.00030  0.00138           (  0.00000  0.00001  0.00001)
     0.00030  0.00353 -0.00058           (  0.00001  0.00001  0.00000)
     0.00138 -0.00058 -0.00137           (  0.00001  0.00000 -0.00001)

 PIEZOELECTRIC TENSOR FIELD DIRECTION 3  (C/m^2)
 -----------------------------------------------------------------------------
    -0.00075  0.00003  0.00014
     0.00003  0.00035 -0.00006
     0.00014 -0.00006 -0.00013


      POSITION         DIRECTION 3           BORN EFFECTIVE CHARGE    (rigid.aug.   ionic)
 -----------------------------------------------------------------------------------------
      0.00099      5.46997      5.46708     0.10782  0.04252 -5.76272 (  0.21594  4.00000)
      1.36747      1.36458      1.37016     0.06826  0.01213 -5.80194 (  0.21592  4.00000)
      2.73208      2.73766      5.46756    -0.05819  0.08809 -5.82112 (  0.21591  4.00000)
      4.10516      4.10006      1.36703     0.08909 -0.05170 -5.79263 (  0.21592  4.00000)
      2.73256      5.46953      2.73171    -0.09159 -0.09818 -5.75664 (  0.21594  4.00000)
      4.10203      1.36421      4.10266    -0.05182  0.02460 -5.78034 (  0.21592  4.00000)
      5.46671      2.73516      2.73572     0.07825 -0.06640 -5.76776 (  0.21593  4.00000)
      1.36766      4.10322      4.10286    -0.06891 -0.02554 -5.73151 (  0.21595  4.00000)
 -----------------------------------------------------------------------------------------
    total drift (improves with k-points):   0.07292 -0.07447-46.21466




--------------------------------------------------------------------------------------------------------


  LATTYP: Found a simple cubic cell.
 ALAT       =     5.4700000000
  
  Lattice vectors:
  
 A1 = (   5.4700000000,   0.0000000000,   0.0000000000)
 A2 = (   0.0000000000,   5.4700000000,   0.0000000000)
 A3 = (   0.0000000000,   0.0000000000,   5.4700000000)


Analysis of symmetry for initial positions (statically):
=====================================================================
 Subroutine PRICEL returns:
 Original cell was already a primitive cell.
 

 Routine SETGRP: Setting up the symmetry group for a 
 simple cubic supercell.


 Subroutine GETGRP returns: Found  1 space group operations
 (whereof  1 operations were pure point group operations)
 out of a pool of 48 trial point group operations.


The static configuration has the point symmetry C_1 .


Analysis of symmetry for dynamics (positions and initial velocities):
=====================================================================
 Subroutine PRICEL returns:
 Original cell was already a primitive cell.
 

 Routine SETGRP: Setting up the symmetry group for a 
 simple cubic supercell.


 Subroutine GETGRP returns: Found  1 space group operations
 (whereof  1 operations were pure point group operations)
 out of a pool of 48 trial point group operations.


The dynamic configuration has the point symmetry C_1 .


 MACROSCOPIC STATIC DIELECTRIC TENSOR (including local field effects in DFT)
 ------------------------------------------------------
          56.868016     0.343593    -0.331348
           0.343591    56.875031     0.328192
          -0.331356     0.328188    56.864424
 ------------------------------------------------------



--------------------------------------------------------------------------------------------------------


  LATTYP: Found a simple cubic cell.
 ALAT       =     5.4700000000
  
  Lattice vectors:
  
 A1 = (   5.4700000000,   0.0000000000,   0.0000000000)
 A2 = (   0.0000000000,   5.4700000000,   0.0000000000)
 A3 = (   0.0000000000,   0.0000000000,   5.4700000000)


Analysis of symmetry for initial positions (statically):
=====================================================================
 Subroutine PRICEL returns:
 Original cell was already a primitive cell.
 

 Routine SETGRP: Setting up the symmetry group for a 
 simple cubic supercell.


 Subroutine GETGRP returns: Found  1 space group operations
 (whereof  1 operations were pure point group operations)
 out of a pool of 48 trial point group operations.


The static configuration has the point symmetry C_1 .


Analysis of symmetry for dynamics (positions and initial velocities):
=====================================================================
 Subroutine PRICEL returns:
 Original cell was already a primitive cell.
 

 Routine SETGRP: Setting up the symmetry group for a 
 simple cubic supercell.


 Subroutine GETGRP returns: Found  1 space group operations
 (whereof  1 operations were pure point group operations)
 out of a pool of 48 trial point group operations.


The dynamic configuration has the point symmetry C_1 .
 
 KPOINTS: Automatic mesh                          

Automatic generation of k-mesh.
Space group operators:
 irot       det(A)        alpha          n_x          n_y          n_z        tau_x        tau_y        tau_z
    1     1.000000     0.000001     1.000000     0.000000     0.000000     0.000000     0.000000     0.000000
 
 Subroutine IBZKPT returns following result:
 ===========================================
 
 Found      1 irreducible k-points:
 
 Following reciprocal coordinates:
            Coordinates               Weight
  0.000000  0.000000  0.000000      1.000000
 
 Following cartesian coordinates:
            Coordinates               Weight
  0.000000  0.000000  0.000000      1.000000
 


--------------------------------------------------------------------------------------------------------




 MACROSCOPIC STATIC DIELECTRIC TENSOR (including local field effects in DFT)
 ------------------------------------------------------
          56.868016     0.343593    -0.331348
           0.343591    56.875031     0.328192
          -0.331356     0.328188    56.864424
 ------------------------------------------------------


 PIEZOELECTRIC TENSOR  for field in x, y, z        (e  Angst)
          XX          YY          ZZ          XY          YZ          ZX
  --------------------------------------------------------------------------------
  x     0.00201    -0.00377     0.00627     0.00223    -0.00301    -0.00050
  y     0.00244     0.00069    -0.00065    -0.00289     0.00206     0.00193
  z    -0.00767     0.00353    -0.00137     0.00030    -0.00058     0.00138

 PIEZOELECTRIC TENSOR  for field in x, y, z        (C/m^2)
          XX          YY          ZZ          XY          YZ          ZX
  --------------------------------------------------------------------------------
  x     0.00020    -0.00037     0.00061     0.00022    -0.00029    -0.00005
  y     0.00024     0.00007    -0.00006    -0.00028     0.00020     0.00019
  z    -0.00075     0.00035    -0.00013     0.00003    -0.00006     0.00014
 
 BORN EFFECTIVE CHARGES (in e, cummulative output)
 -------------------------------------------------
 ion    1
    1    -5.74923     0.00804    -0.03827
    2    -0.03542    -5.73818    -0.07267
    3     0.10782     0.04252    -5.76272
 ion    2
    1    -5.77700    -0.10403    -0.10673
    2     0.07250    -5.80540    -0.00999
    3     0.06826     0.01213    -5.80194
 ion    3
    1    -5.81294    -0.03339     0.07225
    2     0.01295    -5.82806    -0.13988
    3    -0.05819     0.08809    -5.82112
 ion    4
    1    -5.80382     0.09221    -0.07686
    2    -0.08776    -5.77689    -0.02003
    3     0.08909    -0.05170    -5.79263
 ion    5
    1    -5.76797    -0.01633     0.06000
    2    -0.04403    -5.74939     0.12688
    3    -0.09159    -0.09818    -5.75664
 ion    6
    1    -5.80145     0.01561     0.12581
    2    -0.08702    -5.79802    -0.00296
    3    -0.05182     0.02460    -5.78034
 ion    7
    1    -5.77812     0.00097    -0.05505
    2     0.02818    -5.79505     0.04854
    3     0.07825    -0.06640    -5.76776
 ion    8
    1    -5.72283    -0.03796     0.09203
    2     0.06439    -5.72832    -0.00467
    3    -0.06891    -0.02554    -5.73151


--------------------------------------------------------------------------------------------------------


     LOOP+:  cpu time   18.67: real time   19.08
    4ORBIT:  cpu time    0.00: real time    0.00

 total amount of memory used by VASP on root node    32224. kBytes
========================================================================

   base      :      30000. kBytes
   nonl-proj :        202. kBytes
   fftplans  :        782. kBytes
   grid      :       1198. kBytes
   one-center:         24. kBytes
   wavefun   :         18. kBytes
 
  
  
 General timing and accounting informations for this job:
 ========================================================
  
                  Total CPU time used (sec):       19.538
                            User time (sec):       15.861
                          System time (sec):        3.677
                         Elapsed time (sec):       21.421
  
                   Maximum memory used (kb):       63920.
                   Average memory used (kb):           0.
  
                          Minor page faults:       201741
                          Major page faults:            0
                 Voluntary context switches:         1462
