 vasp.5.3.3 18Dez12 (build Jan  9 2014 12:00:49) complex                        
  
 executed on             LinuxIFC date 2014.01.29  10:14:10
 running on   48 total cores
 distrk:  each k-point on   48 cores,    1 groups
 distr:  one band on NCORES_PER_BAND=   1 cores,   48 groups


--------------------------------------------------------------------------------------------------------


 INCAR:
 POTCAR:    PAW Si                                

 ----------------------------------------------------------------------------- 
|                                                                             |
|           W    W    AA    RRRRR   N    N  II  N    N   GGGG   !!!           |
|           W    W   A  A   R    R  NN   N  II  NN   N  G    G  !!!           |
|           W    W  A    A  R    R  N N  N  II  N N  N  G       !!!           |
|           W WW W  AAAAAA  RRRRR   N  N N  II  N  N N  G  GGG   !            |
|           WW  WW  A    A  R   R   N   NN  II  N   NN  G    G                |
|           W    W  A    A  R    R  N    N  II  N    N   GGGG   !!!           |
|                                                                             |
|      For optimal performance we recommend that you set                      |
|        NPAR = 4 - approx SQRT( number of cores)                             |
|      (number of cores/NPAR must be integer)                                 |
|      This setting will greatly improve the performance of VASP for DFT.     |
|      The default NPAR=number of cores might be grossly inefficient          |
|      on modern multi-core architectures or massively parallel machines.     |
|      Do your own testing.                                                   |
|      Unfortunately you need to use the default for hybrid, GW and RPA       |
|      calculations.                                                          |
|                                                                             |
 ----------------------------------------------------------------------------- 

 POTCAR:    PAW Si                                
   VRHFIN =Si: s2p2                                                             
   LEXCH  = 91                                                                  
   EATOM  =   103.3076 eV,    7.5929 Ry                                         
                                                                                
   TITEL  = PAW Si                                                              
   LULTRA =        F    use ultrasoft PP ?                                      
   IUNSCR =        1    unscreen: 0-lin 1-nonlin 2-no                           
   RPACOR =    1.500    partial core radius                                     
   POMASS =   28.085; ZVAL   =    4.000    mass and valenz                      
   RCORE  =    1.900    outmost cutoff radius                                   
   RWIGS  =    2.480; RWIGS  =    1.312    wigner-seitz radius (au A)           
   ENMAX  =  245.435; ENMIN  =  184.076 eV                                      
   ICORE  =        2    local potential                                         
   LCOR   =        T    correct aug charges                                     
   LPAW   =        T    paw PP                                                  
   EAUG   =  322.069                                                            
   DEXC   =    -.001                                                            
   RMAX   =    2.943    core radius for proj-oper                               
   RAUG   =    1.300    factor for augmentation sphere                          
   RDEP   =    1.993    core radius for depl-charge                             
   QCUT   =   -4.247; QGAM   =    8.494    optimization parameters              
                                                                                
   Description                                                                  
     l     E      TYP  RCUT    TYP  RCUT                                        
     0   .000     23  1.900                                                     
     0   .000     23  1.900                                                     
     1   .000     23  1.900                                                     
     1   .000     23  1.900                                                     
     2   .000      7  1.900                                                     
  local pseudopotential read in
  partial core-charges read in
  atomic valenz-charges read in
  non local Contribution for L=           0  read in
    real space projection operators read in
  non local Contribution for L=           0  read in
    real space projection operators read in
  non local Contribution for L=           1  read in
    real space projection operators read in
  non local Contribution for L=           1  read in
    real space projection operators read in
    PAW grid and wavefunctions read in
 
   number of l-projection  operators is LMAX  =           4
   number of lm-projection operators is LMMAX =           8
 
  PAW Si                                :
 energy of atom  1       EATOM= -103.3076
 kinetic energy error for atom=    0.0109 (will be added to EATOM!!)
 
 
 POSCAR: OUTCAR.0024.+1.out 1.0e-02              
  positions in cartesian coordinates
  No initial velocities read in
 exchange correlation table for  LEXCH =        7
   RHO(1)=    0.500       N(1)  =     2000
   RHO(2)=  100.500       N(2)  =     4000

 VTST: version 3.0c, (01/09/14)

 CHAIN: initializing optimizer
 
 OPT: Using VASP Dynamics algorithm
 CHAIN: Read ICHAIN            0
 
 POSCAR: OUTCAR.0024.+1.out 1.0e-02              
  positions in cartesian coordinates
  No initial velocities read in
 


--------------------------------------------------------------------------------------------------------


 ion  position               nearest neighbor table
   1  1.000  1.000  1.000-   6 2.36   4 2.37   8 2.37   2 2.37
   2  0.250  0.250  0.250-   5 2.37   3 2.37   1 2.37   7 2.37
   3  0.500  0.500  0.001-   8 2.37   2 2.37   4 2.37   6 2.37
   4  0.750  0.751  0.250-   5 2.37   1 2.37   7 2.37   3 2.37
   5  0.501  0.000  0.500-   4 2.37   2 2.37   6 2.37   8 2.37
   6  0.750  0.250  0.751-   1 2.36   5 2.37   3 2.37   7 2.37
   7  0.000  0.501  0.500-   4 2.37   8 2.37   2 2.37   6 2.37
   8  0.251  0.750  0.750-   3 2.37   7 2.37   1 2.37   5 2.37
 
  LATTYP: Found a simple cubic cell.
 ALAT       =     5.4700000000
  
  Lattice vectors:
  
 A1 = (   5.4700000000,   0.0000000000,   0.0000000000)
 A2 = (   0.0000000000,   5.4700000000,   0.0000000000)
 A3 = (   0.0000000000,   0.0000000000,   5.4700000000)


Analysis of symmetry for initial positions (statically):
=====================================================================
 Subroutine PRICEL returns:
 Original cell was already a primitive cell.
 

 Routine SETGRP: Setting up the symmetry group for a 
 simple cubic supercell.


 Subroutine GETGRP returns: Found  1 space group operations
 (whereof  1 operations were pure point group operations)
 out of a pool of 48 trial point group operations.


The static configuration has the point symmetry C_1 .


Analysis of symmetry for dynamics (positions and initial velocities):
=====================================================================
 Subroutine PRICEL returns:
 Original cell was already a primitive cell.
 

 Routine SETGRP: Setting up the symmetry group for a 
 simple cubic supercell.


 Subroutine GETGRP returns: Found  1 space group operations
 (whereof  1 operations were pure point group operations)
 out of a pool of 48 trial point group operations.


The dynamic configuration has the point symmetry C_1 .


 irot  :   1
 --------------------------------------------------------------------
 isymop:   1   0   0
           0   1   0
           0   0   1

 gtrans:     0.0000000     0.0000000     0.0000000

 ptrans:     0.0000000     0.0000000     0.0000000
 rotmap:
 (   1->   1)  (   2->   2)  (   3->   3)  (   4->   4)  (   5->   5) 
 (   6->   6)  (   7->   7)  (   8->   8) 
 
 
 KPOINTS: Automatic mesh                          

Automatic generation of k-mesh.
Space group operators:
 irot       det(A)        alpha          n_x          n_y          n_z        tau_x        tau_y        tau_z
    1     1.000000     0.000001     1.000000     0.000000     0.000000     0.000000     0.000000     0.000000
 
 Subroutine IBZKPT returns following result:
 ===========================================
 
 Found      1 irreducible k-points:
 
 Following reciprocal coordinates:
            Coordinates               Weight
  0.000000  0.000000  0.000000      1.000000
 
 Following cartesian coordinates:
            Coordinates               Weight
  0.000000  0.000000  0.000000      1.000000
 
 
 Subroutine IBZKPT_HF returns following result:
 ==============================================
 
 Found      1 k-points in 1st BZ
 the following      1 k-points will be used (e.g. in the exchange kernel)
 Following reciprocal coordinates:   # in IRBZ
  0.000000  0.000000  0.000000       1 t-inv F


--------------------------------------------------------------------------------------------------------




 Dimension of arrays:
   k-points           NKPTS =      1   k-points in BZ     NKDIM =      1   number of bands    NBANDS=     48
   number of dos      NEDOS =    301   number of ions     NIONS =      8
   non local maximal  LDIM  =      4   non local SUM 2l+1 LMDIM =      8
   total plane-waves  NPLWV =  21952
   max r-space proj   IRMAX =      1   max aug-charges    IRDMAX=  36071
   dimension x,y,z NGX =    28 NGY =   28 NGZ =   28
   dimension x,y,z NGXF=    56 NGYF=   56 NGZF=   56
   support grid    NGXF=   112 NGYF=  112 NGZF=  112
   ions per type =               8
 NGX,Y,Z   is equivalent  to a cutoff of   8.51,  8.51,  8.51 a.u.
 NGXF,Y,Z  is equivalent  to a cutoff of  17.02, 17.02, 17.02 a.u.


 I would recommend the setting:
   dimension x,y,z NGX =    19 NGY =   19 NGZ =   19
 SYSTEM =  NAPTHA04                                
 POSCAR =  OUTCAR.0024.+1.out 1.0e-02              

 Startparameter for this run:
   NWRITE =      3    write-flag & timer
   PREC   = normal    normal or accurate (medium, high low for compatibility)
   ISTART =      0    job   : 0-new  1-cont  2-samecut
   ICHARG =      2    charge: 1-file 2-atom 10-const
   ISPIN  =      1    spin polarized calculation?
   LNONCOLLINEAR =      F non collinear calculations
   LSORBIT =      F    spin-orbit coupling
   INIWAV =      1    electr: 0-lowe 1-rand  2-diag
   LASPH  =      F    aspherical Exc in radial PAW
   METAGGA=      F    non-selfconsistent MetaGGA calc.

 Electronic Relaxation 1
   ENCUT  =  200.0 eV  14.70 Ry    3.83 a.u.   6.31  6.31  6.31*2*pi/ulx,y,z
   ENINI  =  200.0     initial cutoff
   ENAUG  =  322.1 eV  augmentation charge cutoff
   NELM   =     60;   NELMIN=  2; NELMDL= -5     # of ELM steps 
   EDIFF  = 0.1E-07   stopping-criterion for ELM
   LREAL  =      F    real-space projection
   NLSPLINE    = F    spline interpolate recip. space projectors
   LCOMPAT=      F    compatible to vasp.4.4
   GGA_COMPAT  = T    GGA compatible to vasp.4.4-vasp.4.6
   LMAXPAW     = -100 max onsite density
   LMAXMIX     =    2 max onsite mixed and CHGCAR
   VOSKOWN=      0    Vosko Wilk Nusair interpolation
   ROPT   =    0.00000
 Ionic relaxation
   EDIFFG = 0.1E-06   stopping-criterion for IOM
   NSW    =      0    number of steps for IOM
   NBLOCK =      1;   KBLOCK =      1    inner block; outer block 
   IBRION =     -1    ionic relax: 0-MD 1-quasi-New 2-CG
   NFREE  =      0    steps in history (QN), initial steepest desc. (CG)
   ISIF   =      2    stress and relaxation
   IWAVPR =     10    prediction:  0-non 1-charg 2-wave 3-comb
   ISYM   =      2    0-nonsym 1-usesym 2-fastsym
   LCORR  =      T    Harris-Foulkes like correction to forces

   POTIM  = 0.5000    time-step for ionic-motion
   TEIN   =    0.0    initial temperature
   TEBEG  =    0.0;   TEEND  =   0.0 temperature during run
   SMASS  =  -3.00    Nose mass-parameter (am)
   estimated Nose-frequenzy (Omega)   =  0.10E-29 period in steps =****** mass=  -0.684E-27a.u.
   SCALEE = 1.0000    scale energy and forces
   NPACO  =    256;   APACO  = 16.0  distance and # of slots for P.C.
   PSTRESS=    0.0 pullay stress

  Mass of Ions in am
   POMASS =  28.09
  Ionic Valenz
   ZVAL   =   4.00
  Atomic Wigner-Seitz radii
   RWIGS  =  -1.00
  virtual crystal weights 
   VCA    =   1.00
   NELECT =      32.0000    total number of electrons
   NUPDOWN=      -1.0000    fix difference up-down

 DOS related values:
   EMIN   =  10.00;   EMAX   =-10.00  energy-range for DOS
   EFERMI =   0.00
   ISMEAR =     0;   SIGMA  =   0.02  broadening in eV -4-tet -1-fermi 0-gaus

 Electronic relaxation 2 (details)
   IALGO  =     68    algorithm
   LDIAG  =      T    sub-space diagonalisation (order eigenvalues)
   LSUBROT=      T    optimize rotation matrix (better conditioning)
   TURBO    =      0    0=normal 1=particle mesh
   IRESTART =      0    0=no restart 2=restart with 2 vectors
   NREBOOT  =      0    no. of reboots
   NMIN     =      0    reboot dimension
   EREF     =   0.00    reference energy to select bands
   IMIX   =      4    mixing-type and parameters
     AMIX     =   0.40;   BMIX     =  1.00
     AMIX_MAG =   1.60;   BMIX_MAG =  1.00
     AMIN     =   0.10
     WC   =   100.;   INIMIX=   1;  MIXPRE=   1;  MAXMIX= -45

 Intra band minimization:
   WEIMIN = 0.0000     energy-eigenvalue tresh-hold
   EBREAK =  0.52E-10  absolut break condition
   DEPER  =   0.30     relativ break condition  

   TIME   =   0.40     timestep for ELM

  volume/ion in A,a.u.               =      20.46       138.06
  Fermi-wavevector in a.u.,A,eV,Ry     =   0.950176  1.795573 12.283814  0.902835
  Thomas-Fermi vector in A             =   2.078528
 
 Write flags
   LWAVE  =      F    write WAVECAR
   LCHARG =      F    write CHGCAR
   LVTOT  =      F    write LOCPOT, total local potential
   LVHAR  =      F    write LOCPOT, Hartree potential only
   LELF   =      F    write electronic localiz. function (ELF)
   LORBIT =      0    0 simple, 1 ext, 2 COOP (PROOUT)


 Dipole corrections
   LMONO  =      F    monopole corrections only (constant potential shift)
   LDIPOL =      F    correct potential (dipole corrections)
   IDIPOL =      0    1-x, 2-y, 3-z, 4-all directions 
   EPSILON=  1.0000000 bulk dielectric constant

 Exchange correlation treatment:
   GGA     =    --    GGA type
   LEXCH   =     7    internal setting for exchange type
   VOSKOWN=      0    Vosko Wilk Nusair interpolation
   LHFCALC =     F    Hartree Fock is set to
   LHFONE  =     F    Hartree Fock one center treatment
   AEXX    =    0.0000 exact exchange contribution

 Linear response parameters
   LEPSILON=     T    determine dielectric tensor
   LRPA    =     F    only Hartree local field effects (RPA)
   LNABLA  =     F    use nabla operator in PAW spheres
   LVEL    =     F    velocity operator in full k-point grid
   LINTERFAST=   F  fast interpolation
   KINTER  =     0    interpolate to denser k-point grid
   CSHIFT  =0.1000    complex shift for real part using Kramers Kronig
   OMEGAMAX=  -1.0    maximum frequency
   DEG_THRESHOLD= 0.2000000E-02 threshold for treating states as degnerate
   RTIME   =    0.100 relaxation time in fs

 Orbital magnetization related:
   ORBITALMAG=     F  switch on orbital magnetization
   LCHIMAG   =     F  perturbation theory with respect to B field
   DQ        =  0.001000  dq finite difference perturbation B field



--------------------------------------------------------------------------------------------------------


 Static calculation
 charge density and potential will be updated during run
 non-spin polarized calculation
 RMM-DIIS sequential band-by-band and
  variant of blocked Davidson during initial phase
 perform sub-space diagonalisation
    before iterative eigenvector-optimisation
 modified Broyden-mixing scheme, WC =      100.0
 initial mixing is a Kerker type mixing with AMIX =  0.4000 and BMIX =      1.0000
 Hartree-type preconditioning will be used
 using additional bands           32
 reciprocal scheme for non local part
 use partial core corrections
 calculate Harris-corrections to forces 
   (improved forces if not selfconsistent)
 use gradient corrections 
 use of overlap-Matrix (Vanderbilt PP)
 Gauss-broadening in eV      SIGMA  =   0.02


--------------------------------------------------------------------------------------------------------


  energy-cutoff  :      200.00
  volume of cell :      163.67
      direct lattice vectors                 reciprocal lattice vectors
     5.470000000  0.000000000  0.000000000     0.182815356  0.000000000  0.000000000
     0.000000000  5.470000000  0.000000000     0.000000000  0.182815356  0.000000000
     0.000000000  0.000000000  5.470000000     0.000000000  0.000000000  0.182815356

  length of vectors
     5.470000000  5.470000000  5.470000000     0.182815356  0.182815356  0.182815356


 
 k-points in units of 2pi/SCALE and weight: Automatic mesh                          
   0.00000000  0.00000000  0.00000000       1.000
 
 k-points in reciprocal lattice and weights: Automatic mesh                          
   0.00000000  0.00000000  0.00000000       1.000
 
 position of ions in fractional coordinates (direct lattice) 
   0.99977883  0.99999953  0.99959862
   0.24999953  0.24959862  0.25027481
   0.49959862  0.50027481  0.00064978
   0.75027481  0.75064978  0.25021470
   0.50064978  0.00021470  0.50002626
   0.75021470  0.25002626  0.75061305
   0.00002626  0.50061305  0.49998069
   0.25061305  0.74998069  0.75021937
 
 position of ions in cartesian coordinates  (Angst):
   5.46879021  5.46999743  5.46780447
   1.36749743  1.36530447  1.36900320
   2.73280447  2.73650320  0.00355431
   4.10400320  4.10605431  1.36867440
   2.73855431  0.00117440  2.73514366
   4.10367440  1.36764366  4.10585337
   0.00014366  2.73835337  2.73489439
   1.37085337  4.10239439  4.10369997
 


--------------------------------------------------------------------------------------------------------


 k-point  1 :   0.0000 0.0000 0.0000  plane waves:    1021

 maximum and minimum number of plane-waves per node :      1021     1021

 maximum number of plane-waves:      1021
 maximum index in each direction: 
   IXMAX=    6   IYMAX=    6   IZMAX=    6
   IXMIN=   -6   IYMIN=   -6   IZMIN=   -6

 NGX is ok and might be reduce to  26
 NGY is ok and might be reduce to  26
 NGZ is ok and might be reduce to  26

 serial   3D FFT for wavefunctions
 parallel 3D FFT for charge:
    minimum data exchange during FFTs selected (reduces bandwidth)


 total amount of memory used by VASP on root node    32224. kBytes
========================================================================

   base      :      30000. kBytes
   nonl-proj :        202. kBytes
   fftplans  :        782. kBytes
   grid      :       1198. kBytes
   one-center:         24. kBytes
   wavefun   :         18. kBytes
 
 Broyden mixing: mesh for mixing (old mesh)
   NGX = 13   NGY = 13   NGZ = 13
  (NGX  = 56   NGY  = 56   NGZ  = 56)
  gives a total of   2197 points

 initial charge density was supplied:
 charge density of overlapping atoms calculated
 number of electron      32.0000000 magnetization 
 keeping initial charge density in first step


--------------------------------------------------------------------------------------------------------


 Maximum index for augmentation-charges         1784 (set IRDMAX)


--------------------------------------------------------------------------------------------------------


 First call to EWALD:  gamma=   0.324
 Maximum number of real-space cells 3x 3x 3
 Maximum number of reciprocal cells 3x 3x 3

 FEWALD executed in parallel
    FEWALD:  cpu time    0.00: real time    0.00


----------------------------------------- Iteration    1(   1)  ---------------------------------------


    POTLOK:  cpu time    0.03: real time    0.04
    SETDIJ:  cpu time    0.02: real time    0.02
     EDDAV:  cpu time    0.40: real time    0.40
       DOS:  cpu time    0.00: real time    0.00
    --------------------------------------------
      LOOP:  cpu time    0.46: real time    0.47

 eigenvalue-minimisations  :    96
 total energy-change (2. order) :-0.1014826E+02  (-0.7956305E+03)
 number of electron      32.0000000 magnetization 
 augmentation part       32.0000000 magnetization 

 Free energy of the ion-electron system (eV)
  ---------------------------------------------------
  alpha Z        PSCENC =        12.68944982
  Ewald energy   TEWEN  =      -907.56782768
  -1/2 Hartree   DENC   =       -45.63582061
  -exchange  EXHF       =         0.00000000
  -V(xc)+E(xc)   XCENC  =       -76.79673458
  PAW double counting   =       265.93453375     -123.69690146
  entropy T*S    EENTRO =        -0.00013902
  eigenvalues    EBANDS =        38.55120015
  atomic energy  EATOM  =       826.37398168
  ---------------------------------------------------
  free energy    TOTEN  =       -10.14825796 eV

  energy without entropy =      -10.14811893  energy(sigma->0) =      -10.14818845


--------------------------------------------------------------------------------------------------------




 average (electrostatic) potential at core
  the test charge radii are     0.9892
  (the norm of the test charge is              1.0000)
       1 -84.3537       2 -84.3484       3 -84.3493       4 -84.3541       5 -84.3526
       6 -84.3495       7 -84.3469       8 -84.3506
 
 
 
 E-fermi :   6.6089     XC(G=0):  -9.5533     alpha+bet :-11.7379


 k-point   1 :       0.0000    0.0000    0.0000
  band No.  band energies     occupation 
      1      -6.5897      2.00000
      2      -2.4180      2.00000
      3      -2.2481      2.00000
      4      -2.1154      2.00000
      5      -2.0312      2.00000
      6      -1.8789      2.00000
      7      -1.6745      2.00000
      8       2.7417      2.00000
      9       2.8479      2.00000
     10       2.9923      2.00000
     11       3.1611      2.00000
     12       3.3481      2.00000
     13       4.0845      2.00000
     14       6.1324      2.00000
     15       6.3595      2.00000
     16       6.5638      1.99858
     17       6.6540      0.00142
     18       6.8071      0.00000
     19       6.9044      0.00000
     20       7.1723      0.00000
     21       7.3846      0.00000
     22       8.0459      0.00000
     23       8.9826      0.00000
     24       9.3749      0.00000
     25      10.4519      0.00000
     26      11.4508      0.00000
     27      13.5063      0.00000
     28      14.7749      0.00000
     29      16.5565      0.00000
     30      16.8906      0.00000
     31      17.3658      0.00000
     32      17.5780      0.00000
     33      17.9229      0.00000
     34      18.1271      0.00000
     35      18.4990      0.00000
     36      18.8795      0.00000
     37      19.3785      0.00000
     38      19.5095      0.00000
     39      19.8672      0.00000
     40      20.2540      0.00000
     41      21.0969      0.00000
     42      21.6844      0.00000
     43      22.1826      0.00000
     44      22.7635      0.00000
     45      23.8949      0.00000
     46      24.3998      0.00000
     47      24.8289      0.00000
     48      25.8409      0.00000


--------------------------------------------------------------------------------------------------------


 soft charge-density along one line, spin component           1
         0         1         2         3         4         5         6         7         8         9
 total charge-density along one line
 
 pseudopotential strength for first ion, spin component:           1
 18.662   0.000   0.000   0.000   0.000   0.000   0.000   0.000
  0.000   0.006   0.000   0.000   0.000   0.000   0.000   0.000
  0.000   0.000   4.216   0.000   0.000  -0.004   0.000   0.000
  0.000   0.000   0.000   4.216   0.000   0.000  -0.004   0.000
  0.000   0.000   0.000   0.000   4.216   0.000   0.000  -0.004
  0.000   0.000  -0.004   0.000   0.000   0.005   0.000   0.000
  0.000   0.000   0.000  -0.004   0.000   0.000   0.005   0.000
  0.000   0.000   0.000   0.000  -0.004   0.000   0.000   0.005
 total augmentation occupancy for first ion, spin component:           1
  2.000   0.000   0.000   0.000   0.000   0.000   0.000   0.000
  0.000   0.000   0.000   0.000   0.000   0.000   0.000   0.000
  0.000   0.000   0.667   0.000   0.000   0.000   0.000   0.000
  0.000   0.000   0.000   0.667   0.000   0.000   0.000   0.000
  0.000   0.000   0.000   0.000   0.667   0.000   0.000   0.000
  0.000   0.000   0.000   0.000   0.000   0.000   0.000   0.000
  0.000   0.000   0.000   0.000   0.000   0.000   0.000   0.000
  0.000   0.000   0.000   0.000   0.000   0.000   0.000   0.000


----------------------------------------- Iteration    1(   2)  ---------------------------------------


     EDDAV:  cpu time    0.98: real time    0.98
       DOS:  cpu time    0.00: real time    0.00
    --------------------------------------------
      LOOP:  cpu time    0.98: real time    0.99

 eigenvalue-minimisations  :   144
 total energy-change (2. order) :-0.2430229E+02  (-0.2430093E+02)
 number of electron      32.0000000 magnetization 
 augmentation part       32.0000000 magnetization 

 Free energy of the ion-electron system (eV)
  ---------------------------------------------------
  alpha Z        PSCENC =        12.68944982
  Ewald energy   TEWEN  =      -907.56782768
  -1/2 Hartree   DENC   =       -45.63582061
  -exchange  EXHF       =         0.00000000
  -V(xc)+E(xc)   XCENC  =       -76.79673458
  PAW double counting   =       265.93453375     -123.69690146
  entropy T*S    EENTRO =         0.00000000
  eigenvalues    EBANDS =        14.24877470
  atomic energy  EATOM  =       826.37398168
  ---------------------------------------------------
  free energy    TOTEN  =       -34.45054438 eV

  energy without entropy =      -34.45054438  energy(sigma->0) =      -34.45054438


--------------------------------------------------------------------------------------------------------




 average (electrostatic) potential at core
  the test charge radii are     0.9892
  (the norm of the test charge is              1.0000)
       1 -84.3537       2 -84.3484       3 -84.3493       4 -84.3541       5 -84.3526
       6 -84.3495       7 -84.3469       8 -84.3506
 
 
 
 E-fermi :   5.2522     XC(G=0):  -9.5533     alpha+bet :-11.7379


 k-point   1 :       0.0000    0.0000    0.0000
  band No.  band energies     occupation 
      1      -6.6371      2.00000
      2      -2.6417      2.00000
      3      -2.6382      2.00000
      4      -2.6307      2.00000
      5      -2.6257      2.00000
      6      -2.6223      2.00000
      7      -2.6164      2.00000
      8       2.3740      2.00000
      9       2.3772      2.00000
     10       2.3782      2.00000
     11       2.3842      2.00000
     12       2.3868      2.00000
     13       2.3958      2.00000
     14       5.0610      2.00000
     15       5.0843      2.00000
     16       5.0948      2.00000
     17       6.1474      0.00000
     18       6.1487      0.00000
     19       6.1549      0.00000
     20       6.1586      0.00000
     21       6.1642      0.00000
     22       6.1660      0.00000
     23       7.8500      0.00000
     24       7.8559      0.00000
     25       7.8656      0.00000
     26       8.1266      0.00000
     27      13.2005      0.00000
     28      13.2618      0.00000
     29      13.2700      0.00000
     30      15.1010      0.00000
     31      15.1334      0.00000
     32      15.1703      0.00000
     33      15.2495      0.00000
     34      15.3127      0.00000
     35      15.6360      0.00000
     36      16.3781      0.00000
     37      16.4256      0.00000
     38      16.4530      0.00000
     39      16.5342      0.00000
     40      16.7189      0.00000
     41      16.7457      0.00000
     42      16.7710      0.00000
     43      16.8687      0.00000
     44      17.2428      0.00000
     45      17.9140      0.00000
     46      17.9476      0.00000
     47      17.9937      0.00000
     48      18.0231      0.00000


--------------------------------------------------------------------------------------------------------


 soft charge-density along one line, spin component           1
         0         1         2         3         4         5         6         7         8         9
 total charge-density along one line
 
 pseudopotential strength for first ion, spin component:           1
 18.662   0.000   0.000   0.000   0.000   0.000   0.000   0.000
  0.000   0.006   0.000   0.000   0.000   0.000   0.000   0.000
  0.000   0.000   4.216   0.000   0.000  -0.004   0.000   0.000
  0.000   0.000   0.000   4.216   0.000   0.000  -0.004   0.000
  0.000   0.000   0.000   0.000   4.216   0.000   0.000  -0.004
  0.000   0.000  -0.004   0.000   0.000   0.005   0.000   0.000
  0.000   0.000   0.000  -0.004   0.000   0.000   0.005   0.000
  0.000   0.000   0.000   0.000  -0.004   0.000   0.000   0.005
 total augmentation occupancy for first ion, spin component:           1
  2.000   0.000   0.000   0.000   0.000   0.000   0.000   0.000
  0.000   0.000   0.000   0.000   0.000   0.000   0.000   0.000
  0.000   0.000   0.667   0.000   0.000   0.000   0.000   0.000
  0.000   0.000   0.000   0.667   0.000   0.000   0.000   0.000
  0.000   0.000   0.000   0.000   0.667   0.000   0.000   0.000
  0.000   0.000   0.000   0.000   0.000   0.000   0.000   0.000
  0.000   0.000   0.000   0.000   0.000   0.000   0.000   0.000
  0.000   0.000   0.000   0.000   0.000   0.000   0.000   0.000


----------------------------------------- Iteration    1(   3)  ---------------------------------------


     EDDAV:  cpu time    0.39: real time    0.39
       DOS:  cpu time    0.00: real time    0.00
    --------------------------------------------
      LOOP:  cpu time    0.39: real time    0.40

 eigenvalue-minimisations  :    96
 total energy-change (2. order) :-0.1671939E+00  (-0.1671939E+00)
 number of electron      32.0000000 magnetization 
 augmentation part       32.0000000 magnetization 

 Free energy of the ion-electron system (eV)
  ---------------------------------------------------
  alpha Z        PSCENC =        12.68944982
  Ewald energy   TEWEN  =      -907.56782768
  -1/2 Hartree   DENC   =       -45.63582061
  -exchange  EXHF       =         0.00000000
  -V(xc)+E(xc)   XCENC  =       -76.79673458
  PAW double counting   =       265.93453375     -123.69690146
  entropy T*S    EENTRO =         0.00000000
  eigenvalues    EBANDS =        14.08158080
  atomic energy  EATOM  =       826.37398168
  ---------------------------------------------------
  free energy    TOTEN  =       -34.61773828 eV

  energy without entropy =      -34.61773828  energy(sigma->0) =      -34.61773828


--------------------------------------------------------------------------------------------------------




 average (electrostatic) potential at core
  the test charge radii are     0.9892
  (the norm of the test charge is              1.0000)
       1 -84.3537       2 -84.3484       3 -84.3493       4 -84.3541       5 -84.3526
       6 -84.3495       7 -84.3469       8 -84.3506
 
 
 
 E-fermi :   5.2225     XC(G=0):  -9.5533     alpha+bet :-11.7379


 k-point   1 :       0.0000    0.0000    0.0000
  band No.  band energies     occupation 
      1      -6.6372      2.00000
      2      -2.6435      2.00000
      3      -2.6411      2.00000
      4      -2.6329      2.00000
      5      -2.6272      2.00000
      6      -2.6239      2.00000
      7      -2.6194      2.00000
      8       2.3711      2.00000
      9       2.3742      2.00000
     10       2.3764      2.00000
     11       2.3805      2.00000
     12       2.3809      2.00000
     13       2.3831      2.00000
     14       5.0526      2.00000
     15       5.0727      2.00000
     16       5.0747      2.00000
     17       6.1450      0.00000
     18       6.1465      0.00000
     19       6.1514      0.00000
     20       6.1552      0.00000
     21       6.1602      0.00000
     22       6.1611      0.00000
     23       7.8450      0.00000
     24       7.8461      0.00000
     25       7.8574      0.00000
     26       8.1178      0.00000
     27      13.1845      0.00000
     28      13.1866      0.00000
     29      13.2692      0.00000
     30      15.0847      0.00000
     31      15.0878      0.00000
     32      15.0930      0.00000
     33      15.1102      0.00000
     34      15.1279      0.00000
     35      15.1825      0.00000
     36      16.3140      0.00000
     37      16.3333      0.00000
     38      16.3428      0.00000
     39      16.3635      0.00000
     40      16.4314      0.00000
     41      16.4906      0.00000
     42      16.7108      0.00000
     43      16.7189      0.00000
     44      16.8171      0.00000
     45      17.8809      0.00000
     46      17.8942      0.00000
     47      17.9229      0.00000
     48      17.9381      0.00000


--------------------------------------------------------------------------------------------------------


 soft charge-density along one line, spin component           1
         0         1         2         3         4         5         6         7         8         9
 total charge-density along one line
 
 pseudopotential strength for first ion, spin component:           1
 18.662   0.000   0.000   0.000   0.000   0.000   0.000   0.000
  0.000   0.006   0.000   0.000   0.000   0.000   0.000   0.000
  0.000   0.000   4.216   0.000   0.000  -0.004   0.000   0.000
  0.000   0.000   0.000   4.216   0.000   0.000  -0.004   0.000
  0.000   0.000   0.000   0.000   4.216   0.000   0.000  -0.004
  0.000   0.000  -0.004   0.000   0.000   0.005   0.000   0.000
  0.000   0.000   0.000  -0.004   0.000   0.000   0.005   0.000
  0.000   0.000   0.000   0.000  -0.004   0.000   0.000   0.005
 total augmentation occupancy for first ion, spin component:           1
  2.000   0.000   0.000   0.000   0.000   0.000   0.000   0.000
  0.000   0.000   0.000   0.000   0.000   0.000   0.000   0.000
  0.000   0.000   0.667   0.000   0.000   0.000   0.000   0.000
  0.000   0.000   0.000   0.667   0.000   0.000   0.000   0.000
  0.000   0.000   0.000   0.000   0.667   0.000   0.000   0.000
  0.000   0.000   0.000   0.000   0.000   0.000   0.000   0.000
  0.000   0.000   0.000   0.000   0.000   0.000   0.000   0.000
  0.000   0.000   0.000   0.000   0.000   0.000   0.000   0.000


----------------------------------------- Iteration    1(   4)  ---------------------------------------


     EDDAV:  cpu time    2.00: real time    2.00
       DOS:  cpu time    0.00: real time    0.00
    --------------------------------------------
      LOOP:  cpu time    2.00: real time    2.01

 eigenvalue-minimisations  :   192
 total energy-change (2. order) :-0.3544818E-03  (-0.3544818E-03)
 number of electron      32.0000000 magnetization 
 augmentation part       32.0000000 magnetization 

 Free energy of the ion-electron system (eV)
  ---------------------------------------------------
  alpha Z        PSCENC =        12.68944982
  Ewald energy   TEWEN  =      -907.56782768
  -1/2 Hartree   DENC   =       -45.63582061
  -exchange  EXHF       =         0.00000000
  -V(xc)+E(xc)   XCENC  =       -76.79673458
  PAW double counting   =       265.93453375     -123.69690146
  entropy T*S    EENTRO =         0.00000000
  eigenvalues    EBANDS =        14.08122632
  atomic energy  EATOM  =       826.37398168
  ---------------------------------------------------
  free energy    TOTEN  =       -34.61809277 eV

  energy without entropy =      -34.61809277  energy(sigma->0) =      -34.61809277


--------------------------------------------------------------------------------------------------------




 average (electrostatic) potential at core
  the test charge radii are     0.9892
  (the norm of the test charge is              1.0000)
       1 -84.3537       2 -84.3484       3 -84.3493       4 -84.3541       5 -84.3526
       6 -84.3495       7 -84.3469       8 -84.3506
 
 
 
 E-fermi :   5.2003     XC(G=0):  -9.5533     alpha+bet :-11.7379


 k-point   1 :       0.0000    0.0000    0.0000
  band No.  band energies     occupation 
      1      -6.6372      2.00000
      2      -2.6435      2.00000
      3      -2.6412      2.00000
      4      -2.6330      2.00000
      5      -2.6272      2.00000
      6      -2.6239      2.00000
      7      -2.6195      2.00000
      8       2.3711      2.00000
      9       2.3742      2.00000
     10       2.3764      2.00000
     11       2.3804      2.00000
     12       2.3809      2.00000
     13       2.3831      2.00000
     14       5.0525      2.00000
     15       5.0727      2.00000
     16       5.0747      2.00000
     17       6.1450      0.00000
     18       6.1464      0.00000
     19       6.1513      0.00000
     20       6.1552      0.00000
     21       6.1602      0.00000
     22       6.1611      0.00000
     23       7.8450      0.00000
     24       7.8461      0.00000
     25       7.8573      0.00000
     26       8.1178      0.00000
     27      13.1837      0.00000
     28      13.1838      0.00000
     29      13.2692      0.00000
     30      15.0778      0.00000
     31      15.0812      0.00000
     32      15.0838      0.00000
     33      15.0850      0.00000
     34      15.0875      0.00000
     35      15.0935      0.00000
     36      16.2973      0.00000
     37      16.3047      0.00000
     38      16.3101      0.00000
     39      16.3124      0.00000
     40      16.3185      0.00000
     41      16.3197      0.00000
     42      16.6993      0.00000
     43      16.7008      0.00000
     44      16.7129      0.00000
     45      17.8697      0.00000
     46      17.8814      0.00000
     47      17.8845      0.00000
     48      17.8922      0.00000


--------------------------------------------------------------------------------------------------------


 soft charge-density along one line, spin component           1
         0         1         2         3         4         5         6         7         8         9
 total charge-density along one line
 
 pseudopotential strength for first ion, spin component:           1
 18.662   0.000   0.000   0.000   0.000   0.000   0.000   0.000
  0.000   0.006   0.000   0.000   0.000   0.000   0.000   0.000
  0.000   0.000   4.216   0.000   0.000  -0.004   0.000   0.000
  0.000   0.000   0.000   4.216   0.000   0.000  -0.004   0.000
  0.000   0.000   0.000   0.000   4.216   0.000   0.000  -0.004
  0.000   0.000  -0.004   0.000   0.000   0.005   0.000   0.000
  0.000   0.000   0.000  -0.004   0.000   0.000   0.005   0.000
  0.000   0.000   0.000   0.000  -0.004   0.000   0.000   0.005
 total augmentation occupancy for first ion, spin component:           1
  2.000   0.000   0.000   0.000   0.000   0.000   0.000   0.000
  0.000   0.000   0.000   0.000   0.000   0.000   0.000   0.000
  0.000   0.000   0.667   0.000   0.000   0.000   0.000   0.000
  0.000   0.000   0.000   0.667   0.000   0.000   0.000   0.000
  0.000   0.000   0.000   0.000   0.667   0.000   0.000   0.000
  0.000   0.000   0.000   0.000   0.000   0.000   0.000   0.000
  0.000   0.000   0.000   0.000   0.000   0.000   0.000   0.000
  0.000   0.000   0.000   0.000   0.000   0.000   0.000   0.000


----------------------------------------- Iteration    1(   5)  ---------------------------------------


     EDDAV:  cpu time    0.38: real time    0.38
       DOS:  cpu time    0.00: real time    0.00
    CHARGE:  cpu time    0.02: real time    0.02
    MIXING:  cpu time    0.00: real time    0.00
    --------------------------------------------
      LOOP:  cpu time    0.41: real time    0.42

 eigenvalue-minimisations  :    96
 total energy-change (2. order) :-0.3061245E-08  (-0.3061956E-08)
 number of electron      31.9999999 magnetization 
 augmentation part       -1.8053314 magnetization 

 Broyden mixing:
  rms(total) = 0.79306E+00    rms(broyden)= 0.79301E+00
  rms(prec ) = 0.15229E+01
  weight for this iteration     100.00

 Free energy of the ion-electron system (eV)
  ---------------------------------------------------
  alpha Z        PSCENC =        12.68944982
  Ewald energy   TEWEN  =      -907.56782768
  -1/2 Hartree   DENC   =       -45.63582061
  -exchange  EXHF       =         0.00000000
  -V(xc)+E(xc)   XCENC  =       -76.79673458
  PAW double counting   =       265.93453375     -123.69690146
  entropy T*S    EENTRO =         0.00000000
  eigenvalues    EBANDS =        14.08122632
  atomic energy  EATOM  =       826.37398168
  ---------------------------------------------------
  free energy    TOTEN  =       -34.61809277 eV

  energy without entropy =      -34.61809277  energy(sigma->0) =      -34.61809277


--------------------------------------------------------------------------------------------------------




 average (electrostatic) potential at core
  the test charge radii are     0.9892
  (the norm of the test charge is              1.0000)
       1 -84.3537       2 -84.3484       3 -84.3493       4 -84.3541       5 -84.3526
       6 -84.3495       7 -84.3469       8 -84.3506
 
 
 
 E-fermi :   5.1965     XC(G=0):  -9.5533     alpha+bet :-11.7379


 k-point   1 :       0.0000    0.0000    0.0000
  band No.  band energies     occupation 
      1      -6.6372      2.00000
      2      -2.6435      2.00000
      3      -2.6412      2.00000
      4      -2.6330      2.00000
      5      -2.6272      2.00000
      6      -2.6239      2.00000
      7      -2.6195      2.00000
      8       2.3711      2.00000
      9       2.3742      2.00000
     10       2.3764      2.00000
     11       2.3804      2.00000
     12       2.3809      2.00000
     13       2.3831      2.00000
     14       5.0525      2.00000
     15       5.0727      2.00000
     16       5.0747      2.00000
     17       6.1450      0.00000
     18       6.1464      0.00000
     19       6.1513      0.00000
     20       6.1552      0.00000
     21       6.1602      0.00000
     22       6.1611      0.00000
     23       7.8450      0.00000
     24       7.8461      0.00000
     25       7.8573      0.00000
     26       8.1178      0.00000
     27      13.1837      0.00000
     28      13.1838      0.00000
     29      13.2692      0.00000
     30      15.0777      0.00000
     31      15.0811      0.00000
     32      15.0838      0.00000
     33      15.0849      0.00000
     34      15.0875      0.00000
     35      15.0934      0.00000
     36      16.2971      0.00000
     37      16.3042      0.00000
     38      16.3098      0.00000
     39      16.3122      0.00000
     40      16.3180      0.00000
     41      16.3195      0.00000
     42      16.6992      0.00000
     43      16.7006      0.00000
     44      16.7129      0.00000
     45      17.8667      0.00000
     46      17.8732      0.00000
     47      17.8779      0.00000
     48      17.8844      0.00000


--------------------------------------------------------------------------------------------------------


 soft charge-density along one line, spin component           1
         0         1         2         3         4         5         6         7         8         9
 total charge-density along one line
 
 pseudopotential strength for first ion, spin component:           1
 18.662   0.000   0.000   0.000   0.000   0.000   0.000   0.000
  0.000   0.006   0.000   0.000   0.000   0.000   0.000   0.000
  0.000   0.000   4.216   0.000   0.000  -0.004   0.000   0.000
  0.000   0.000   0.000   4.216   0.000   0.000  -0.004   0.000
  0.000   0.000   0.000   0.000   4.216   0.000   0.000  -0.004
  0.000   0.000  -0.004   0.000   0.000   0.005   0.000   0.000
  0.000   0.000   0.000  -0.004   0.000   0.000   0.005   0.000
  0.000   0.000   0.000   0.000  -0.004   0.000   0.000   0.005
 total augmentation occupancy for first ion, spin component:           1
  1.380  -1.053   0.000   0.000  -0.002   0.000   0.000   0.002
 -1.053   0.921  -0.001   0.000   0.001   0.001   0.000  -0.002
  0.000  -0.001   1.164  -0.001  -0.001  -0.758   0.002   0.001
  0.000   0.000  -0.001   1.165   0.000   0.002  -0.759   0.000
 -0.002   0.001  -0.001   0.000   1.166   0.001   0.000  -0.760
  0.000   0.001  -0.758   0.002   0.001   0.570  -0.002  -0.002
  0.000   0.000   0.002  -0.759   0.000  -0.002   0.571   0.000
  0.002  -0.002   0.001   0.000  -0.760  -0.002   0.000   0.571


----------------------------------------- Iteration    1(   6)  ---------------------------------------


    POTLOK:  cpu time    0.02: real time    0.02
    SETDIJ:  cpu time    0.02: real time    0.02
    EDDIAG:  cpu time    0.03: real time    0.03
  RMM-DIIS:  cpu time    0.05: real time    0.05
    ORTHCH:  cpu time    0.01: real time    0.01
       DOS:  cpu time    0.00: real time    0.00
    CHARGE:  cpu time    0.02: real time    0.02
    MIXING:  cpu time    0.00: real time    0.00
    --------------------------------------------
      LOOP:  cpu time    0.15: real time    0.16

 eigenvalue-minimisations  :    96
 total energy-change (2. order) : 0.1001683E+01  (-0.3198047E-01)
 number of electron      31.9999999 magnetization 
 augmentation part       -1.7684033 magnetization 

 Broyden mixing:
  rms(total) = 0.47399E+00    rms(broyden)= 0.47399E+00
  rms(prec ) = 0.91065E+00
  weight for this iteration     100.00

 eigenvalues of (default mixing * dielectric matrix)
  average eigenvalue GAMMA=   2.4573
  2.4573

 Free energy of the ion-electron system (eV)
  ---------------------------------------------------
  alpha Z        PSCENC =        12.68944982
  Ewald energy   TEWEN  =      -907.56782768
  -1/2 Hartree   DENC   =       -54.68229604
  -exchange  EXHF       =         0.00000000
  -V(xc)+E(xc)   XCENC  =       -75.44942909
  PAW double counting   =       286.06048096     -144.35878442
  entropy T*S    EENTRO =         0.00000000
  eigenvalues    EBANDS =        23.31801466
  atomic energy  EATOM  =       826.37398168
  ---------------------------------------------------
  free energy    TOTEN  =       -33.61641011 eV

  energy without entropy =      -33.61641011  energy(sigma->0) =      -33.61641011


--------------------------------------------------------------------------------------------------------




 average (electrostatic) potential at core
  the test charge radii are     0.9892
  (the norm of the test charge is              1.0000)
       1 -83.8343       2 -83.8317       3 -83.8322       4 -83.8345       5 -83.8338
       6 -83.8323       7 -83.8310       8 -83.8328
 
 
 
 E-fermi :   5.5487     XC(G=0):  -9.4504     alpha+bet :-11.7379


 k-point   1 :       0.0000    0.0000    0.0000
  band No.  band energies     occupation 
      1      -6.3787      2.00000
      2      -2.3432      2.00000
      3      -2.3412      2.00000
      4      -2.3342      2.00000
      5      -2.3285      2.00000
      6      -2.3257      2.00000
      7      -2.3219      2.00000
      8       2.6329      2.00000
      9       2.6355      2.00000
     10       2.6375      2.00000
     11       2.6413      2.00000
     12       2.6417      2.00000
     13       2.6435      2.00000
     14       5.3862      2.00000
     15       5.4059      2.00000
     16       5.4079      2.00000
     17       6.2604      0.00000
     18       6.2610      0.00000
     19       6.2659      0.00000
     20       6.2697      0.00000
     21       6.2740      0.00000
     22       6.2748      0.00000
     23       8.0523      0.00000
     24       8.0534      0.00000
     25       8.0649      0.00000
     26       8.4862      0.00000
     27      13.3049      0.00000
     28      13.3569      0.00000
     29      13.3569      0.00000
     30      15.3745      0.00000
     31      15.3775      0.00000
     32      15.3797      0.00000
     33      15.3812      0.00000
     34      15.3837      0.00000
     35      15.3889      0.00000
     36      16.5340      0.00000
     37      16.5406      0.00000
     38      16.5457      0.00000
     39      16.5479      0.00000
     40      16.5531      0.00000
     41      16.5545      0.00000
     42      16.7437      0.00000
     43      16.7452      0.00000
     44      16.7575      0.00000
     45      18.1568      0.00000
     46      18.1627      0.00000
     47      18.1654      0.00000
     48      18.1738      0.00000


--------------------------------------------------------------------------------------------------------


 soft charge-density along one line, spin component           1
         0         1         2         3         4         5         6         7         8         9
 total charge-density along one line
 
 pseudopotential strength for first ion, spin component:           1
 18.635  -0.001   0.000   0.000   0.000   0.000   0.000   0.000
 -0.001   0.006   0.000   0.000   0.000   0.000   0.000   0.000
  0.000   0.000   4.221   0.000   0.000  -0.004   0.000   0.000
  0.000   0.000   0.000   4.221   0.000   0.000  -0.004   0.000
  0.000   0.000   0.000   0.000   4.221   0.000   0.000  -0.004
  0.000   0.000  -0.004   0.000   0.000   0.005   0.000   0.000
  0.000   0.000   0.000  -0.004   0.000   0.000   0.005   0.000
  0.000   0.000   0.000   0.000  -0.004   0.000   0.000   0.005
 total augmentation occupancy for first ion, spin component:           1
  1.351  -1.091   0.000   0.000  -0.002  -0.001   0.000   0.002
 -1.091   0.999  -0.001   0.000   0.001   0.001   0.000  -0.002
  0.000  -0.001   1.146  -0.001   0.000  -0.782   0.002   0.001
  0.000   0.000  -0.001   1.147   0.000   0.002  -0.783   0.000
 -0.002   0.001   0.000   0.000   1.148   0.001   0.000  -0.783
 -0.001   0.001  -0.782   0.002   0.001   0.608  -0.002  -0.001
  0.000   0.000   0.002  -0.783   0.000  -0.002   0.609   0.001
  0.002  -0.002   0.001   0.000  -0.783  -0.001   0.001   0.610


----------------------------------------- Iteration    1(   7)  ---------------------------------------


    POTLOK:  cpu time    0.02: real time    0.02
    SETDIJ:  cpu time    0.02: real time    0.02
    EDDIAG:  cpu time    0.02: real time    0.02
  RMM-DIIS:  cpu time    0.03: real time    0.04
    ORTHCH:  cpu time    0.01: real time    0.01
       DOS:  cpu time    0.00: real time    0.00
    CHARGE:  cpu time    0.02: real time    0.02
    MIXING:  cpu time    0.00: real time    0.00
    --------------------------------------------
      LOOP:  cpu time    0.12: real time    0.13

 eigenvalue-minimisations  :    96
 total energy-change (2. order) : 0.4246414E+00  (-0.7388149E-01)
 number of electron      31.9999999 magnetization 
 augmentation part       -1.7214498 magnetization 

 Broyden mixing:
  rms(total) = 0.46259E-01    rms(broyden)= 0.46249E-01
  rms(prec ) = 0.78470E-01
  weight for this iteration     100.00

 eigenvalues of (default mixing * dielectric matrix)
  average eigenvalue GAMMA=   2.5303
  2.5303  2.5303

 Free energy of the ion-electron system (eV)
  ---------------------------------------------------
  alpha Z        PSCENC =        12.68944982
  Ewald energy   TEWEN  =      -907.56782768
  -1/2 Hartree   DENC   =       -70.51301860
  -exchange  EXHF       =         0.00000000
  -V(xc)+E(xc)   XCENC  =       -73.00931032
  PAW double counting   =       313.72389989     -172.73589250
  entropy T*S    EENTRO =         0.00000000
  eigenvalues    EBANDS =        37.84694899
  atomic energy  EATOM  =       826.37398168
  ---------------------------------------------------
  free energy    TOTEN  =       -33.19176873 eV

  energy without entropy =      -33.19176873  energy(sigma->0) =      -33.19176873


--------------------------------------------------------------------------------------------------------




 average (electrostatic) potential at core
  the test charge radii are     0.9892
  (the norm of the test charge is              1.0000)
       1 -83.1464       2 -83.1443       3 -83.1454       4 -83.1469       5 -83.1458
       6 -83.1457       7 -83.1441       8 -83.1457
 
 
 
 E-fermi :   6.0972     XC(G=0):  -9.2018     alpha+bet :-11.7379


 k-point   1 :       0.0000    0.0000    0.0000
  band No.  band energies     occupation 
      1      -5.9621      2.00000
      2      -1.8757      2.00000
      3      -1.8739      2.00000
      4      -1.8678      2.00000
      5      -1.8621      2.00000
      6      -1.8598      2.00000
      7      -1.8567      2.00000
      8       3.0462      2.00000
      9       3.0483      2.00000
     10       3.0501      2.00000
     11       3.0537      2.00000
     12       3.0541      2.00000
     13       3.0554      2.00000
     14       5.9112      2.00000
     15       5.9303      2.00000
     16       5.9323      2.00000
     17       6.5196      0.00000
     18       6.5197      0.00000
     19       6.5242      0.00000
     20       6.5283      0.00000
     21       6.5317      0.00000
     22       6.5325      0.00000
     23       8.3773      0.00000
     24       8.3785      0.00000
     25       8.3902      0.00000
     26       9.0452      0.00000
     27      13.6012      0.00000
     28      13.6204      0.00000
     29      13.6204      0.00000
     30      15.8249      0.00000
     31      15.8278      0.00000
     32      15.8295      0.00000
     33      15.8312      0.00000
     34      15.8336      0.00000
     35      15.8382      0.00000
     36      16.8985      0.00000
     37      16.8991      0.00000
     38      16.9125      0.00000
     39      16.9550      0.00000
     40      16.9603      0.00000
     41      16.9650      0.00000
     42      16.9669      0.00000
     43      16.9717      0.00000
     44      16.9728      0.00000
     45      18.6583      0.00000
     46      18.6610      0.00000
     47      18.6647      0.00000
     48      18.6760      0.00000


--------------------------------------------------------------------------------------------------------


 soft charge-density along one line, spin component           1
         0         1         2         3         4         5         6         7         8         9
 total charge-density along one line
 
 pseudopotential strength for first ion, spin component:           1
 18.597  -0.001   0.000   0.000   0.000   0.000   0.000   0.000
 -0.001   0.006   0.000   0.000   0.000   0.000   0.000   0.000
  0.000   0.000   4.227   0.000   0.000  -0.005   0.000   0.000
  0.000   0.000   0.000   4.227   0.000   0.000  -0.005   0.000
  0.000   0.000   0.000   0.000   4.227   0.000   0.000  -0.005
  0.000   0.000  -0.005   0.000   0.000   0.005   0.000   0.000
  0.000   0.000   0.000  -0.005   0.000   0.000   0.005   0.000
  0.000   0.000   0.000   0.000  -0.005   0.000   0.000   0.005
 total augmentation occupancy for first ion, spin component:           1
  1.315  -1.113   0.000   0.001  -0.002  -0.001   0.000   0.003
 -1.113   1.060  -0.001   0.001   0.001   0.001  -0.001  -0.002
  0.000  -0.001   1.121  -0.001   0.001  -0.805   0.002   0.001
  0.001   0.001  -0.001   1.122   0.001   0.002  -0.806  -0.001
 -0.002   0.001   0.001   0.001   1.123   0.001  -0.001  -0.806
 -0.001   0.001  -0.805   0.002   0.001   0.652  -0.002  -0.001
  0.000  -0.001   0.002  -0.806  -0.001  -0.002   0.653   0.001
  0.003  -0.002   0.001  -0.001  -0.806  -0.001   0.001   0.653


----------------------------------------- Iteration    1(   8)  ---------------------------------------


    POTLOK:  cpu time    0.02: real time    0.02
    SETDIJ:  cpu time    0.01: real time    0.02
    EDDIAG:  cpu time    0.02: real time    0.02
  RMM-DIIS:  cpu time    0.04: real time    0.05
    ORTHCH:  cpu time    0.01: real time    0.01
       DOS:  cpu time    0.00: real time    0.00
    CHARGE:  cpu time    0.02: real time    0.02
    MIXING:  cpu time    0.00: real time    0.00
    --------------------------------------------
      LOOP:  cpu time    0.14: real time    0.14

 eigenvalue-minimisations  :    96
 total energy-change (2. order) :-0.3197924E-01  (-0.2162479E-02)
 number of electron      31.9999999 magnetization 
 augmentation part       -1.7275461 magnetization 

 Broyden mixing:
  rms(total) = 0.74981E-02    rms(broyden)= 0.74976E-02
  rms(prec ) = 0.17972E-01
  weight for this iteration     100.00

 eigenvalues of (default mixing * dielectric matrix)
  average eigenvalue GAMMA=   2.1192
  1.2684  2.8625  2.2268

 Free energy of the ion-electron system (eV)
  ---------------------------------------------------
  alpha Z        PSCENC =        12.68944982
  Ewald energy   TEWEN  =      -907.56782768
  -1/2 Hartree   DENC   =       -70.39732918
  -exchange  EXHF       =         0.00000000
  -V(xc)+E(xc)   XCENC  =       -72.96581080
  PAW double counting   =       307.35923529     -166.18634852
  entropy T*S    EENTRO =         0.00000000
  eigenvalues    EBANDS =        37.47090143
  atomic energy  EATOM  =       826.37398168
  ---------------------------------------------------
  free energy    TOTEN  =       -33.22374796 eV

  energy without entropy =      -33.22374796  energy(sigma->0) =      -33.22374796


--------------------------------------------------------------------------------------------------------




 average (electrostatic) potential at core
  the test charge radii are     0.9892
  (the norm of the test charge is              1.0000)
       1 -83.2508       2 -83.2466       3 -83.2476       4 -83.2513       5 -83.2499
       6 -83.2480       7 -83.2456       8 -83.2486
 
 
 
 E-fermi :   6.0364     XC(G=0):  -9.1504     alpha+bet :-11.7379


 k-point   1 :       0.0000    0.0000    0.0000
  band No.  band energies     occupation 
      1      -5.9632      2.00000
      2      -1.8879      2.00000
      3      -1.8861      2.00000
      4      -1.8794      2.00000
      5      -1.8736      2.00000
      6      -1.8710      2.00000
      7      -1.8675      2.00000
      8       3.0343      2.00000
      9       3.0367      2.00000
     10       3.0386      2.00000
     11       3.0423      2.00000
     12       3.0427      2.00000
     13       3.0442      2.00000
     14       5.8950      2.00000
     15       5.9142      2.00000
     16       5.9162      2.00000
     17       6.5699      0.00000
     18       6.5708      0.00000
     19       6.5750      0.00000
     20       6.5792      0.00000
     21       6.5828      0.00000
     22       6.5837      0.00000
     23       8.3667      0.00000
     24       8.3678      0.00000
     25       8.3794      0.00000
     26       9.0381      0.00000
     27      13.6064      0.00000
     28      13.6065      0.00000
     29      13.7783      0.00000
     30      15.8099      0.00000
     31      15.8133      0.00000
     32      15.8150      0.00000
     33      15.8165      0.00000
     34      15.8188      0.00000
     35      15.8238      0.00000
     36      16.9353      0.00000
     37      16.9358      0.00000
     38      16.9493      0.00000
     39      16.9615      0.00000
     40      16.9665      0.00000
     41      16.9714      0.00000
     42      16.9733      0.00000
     43      16.9784      0.00000
     44      16.9796      0.00000
     45      18.6950      0.00000
     46      18.6985      0.00000
     47      18.7026      0.00000
     48      18.7146      0.00000


--------------------------------------------------------------------------------------------------------


 soft charge-density along one line, spin component           1
         0         1         2         3         4         5         6         7         8         9
 total charge-density along one line
 
 pseudopotential strength for first ion, spin component:           1
 18.599  -0.001   0.000   0.000   0.000   0.000   0.000   0.000
 -0.001   0.006   0.000   0.000   0.000   0.000   0.000   0.000
  0.000   0.000   4.224   0.000   0.000  -0.005   0.000   0.000
  0.000   0.000   0.000   4.224   0.000   0.000  -0.005   0.000
  0.000   0.000   0.000   0.000   4.224   0.000   0.000  -0.005
  0.000   0.000  -0.005   0.000   0.000   0.005   0.000   0.000
  0.000   0.000   0.000  -0.005   0.000   0.000   0.005   0.000
  0.000   0.000   0.000   0.000  -0.005   0.000   0.000   0.005
 total augmentation occupancy for first ion, spin component:           1
  1.320  -1.093   0.000   0.001  -0.002  -0.001   0.000   0.002
 -1.093   1.022  -0.001   0.001   0.001   0.001   0.000  -0.002
  0.000  -0.001   1.122  -0.001   0.000  -0.801   0.002   0.001
  0.001   0.001  -0.001   1.123   0.000   0.002  -0.802   0.000
 -0.002   0.001   0.000   0.000   1.124   0.001  -0.001  -0.802
 -0.001   0.001  -0.801   0.002   0.001   0.647  -0.002  -0.001
  0.000   0.000   0.002  -0.802  -0.001  -0.002   0.648   0.000
  0.002  -0.002   0.001   0.000  -0.802  -0.001   0.000   0.648


----------------------------------------- Iteration    1(   9)  ---------------------------------------


    POTLOK:  cpu time    0.03: real time    0.03
    SETDIJ:  cpu time    0.02: real time    0.02
    EDDIAG:  cpu time    0.02: real time    0.02
  RMM-DIIS:  cpu time    0.04: real time    0.05
    ORTHCH:  cpu time    0.01: real time    0.01
       DOS:  cpu time    0.00: real time    0.00
    CHARGE:  cpu time    0.02: real time    0.02
    MIXING:  cpu time    0.00: real time    0.00
    --------------------------------------------
      LOOP:  cpu time    0.14: real time    0.15

 eigenvalue-minimisations  :   109
 total energy-change (2. order) :-0.1127580E-02  (-0.1259607E-03)
 number of electron      31.9999999 magnetization 
 augmentation part       -1.7274620 magnetization 

 Broyden mixing:
  rms(total) = 0.41720E-02    rms(broyden)= 0.41719E-02
  rms(prec ) = 0.68456E-02
  weight for this iteration     100.00

 eigenvalues of (default mixing * dielectric matrix)
  average eigenvalue GAMMA=   2.3076
  0.9893  3.2630  2.6910  2.2870

 Free energy of the ion-electron system (eV)
  ---------------------------------------------------
  alpha Z        PSCENC =        12.68944982
  Ewald energy   TEWEN  =      -907.56782768
  -1/2 Hartree   DENC   =       -70.79381420
  -exchange  EXHF       =         0.00000000
  -V(xc)+E(xc)   XCENC  =       -72.90663338
  PAW double counting   =       307.71351002     -166.55112586
  entropy T*S    EENTRO =         0.00000000
  eigenvalues    EBANDS =        37.81758408
  atomic energy  EATOM  =       826.37398168
  ---------------------------------------------------
  free energy    TOTEN  =       -33.22487554 eV

  energy without entropy =      -33.22487554  energy(sigma->0) =      -33.22487554


--------------------------------------------------------------------------------------------------------




 average (electrostatic) potential at core
  the test charge radii are     0.9892
  (the norm of the test charge is              1.0000)
       1 -83.2359       2 -83.2330       3 -83.2334       4 -83.2362       5 -83.2355
       6 -83.2336       7 -83.2321       8 -83.2342
 
 
 
 E-fermi :   6.0512     XC(G=0):  -9.1363     alpha+bet :-11.7379


 k-point   1 :       0.0000    0.0000    0.0000
  band No.  band energies     occupation 
      1      -5.9520      2.00000
      2      -1.8764      2.00000
      3      -1.8747      2.00000
      4      -1.8683      2.00000
      5      -1.8625      2.00000
      6      -1.8600      2.00000
      7      -1.8566      2.00000
      8       3.0443      2.00000
      9       3.0466      2.00000
     10       3.0484      2.00000
     11       3.0520      2.00000
     12       3.0524      2.00000
     13       3.0539      2.00000
     14       5.9071      2.00000
     15       5.9263      2.00000
     16       5.9283      2.00000
     17       6.5838      0.00000
     18       6.5848      0.00000
     19       6.5890      0.00000
     20       6.5932      0.00000
     21       6.5969      0.00000
     22       6.5977      0.00000
     23       8.3744      0.00000
     24       8.3755      0.00000
     25       8.3870      0.00000
     26       9.0526      0.00000
     27      13.6116      0.00000
     28      13.6117      0.00000
     29      13.8104      0.00000
     30      15.8206      0.00000
     31      15.8237      0.00000
     32      15.8254      0.00000
     33      15.8270      0.00000
     34      15.8294      0.00000
     35      15.8342      0.00000
     36      16.9454      0.00000
     37      16.9458      0.00000
     38      16.9593      0.00000
     39      16.9737      0.00000
     40      16.9787      0.00000
     41      16.9835      0.00000
     42      16.9854      0.00000
     43      16.9904      0.00000
     44      16.9916      0.00000
     45      18.7128      0.00000
     46      18.7166      0.00000
     47      18.7210      0.00000
     48      18.7331      0.00000


--------------------------------------------------------------------------------------------------------


 soft charge-density along one line, spin component           1
         0         1         2         3         4         5         6         7         8         9
 total charge-density along one line
 
 pseudopotential strength for first ion, spin component:           1
 18.598  -0.001   0.000   0.000   0.000   0.000   0.000   0.000
 -0.001   0.006   0.000   0.000   0.000   0.000   0.000   0.000
  0.000   0.000   4.224   0.000   0.000  -0.005   0.000   0.000
  0.000   0.000   0.000   4.224   0.000   0.000  -0.005   0.000
  0.000   0.000   0.000   0.000   4.224   0.000   0.000  -0.005
  0.000   0.000  -0.005   0.000   0.000   0.005   0.000   0.000
  0.000   0.000   0.000  -0.005   0.000   0.000   0.005   0.000
  0.000   0.000   0.000   0.000  -0.005   0.000   0.000   0.005
 total augmentation occupancy for first ion, spin component:           1
  1.320  -1.088   0.000   0.001  -0.002  -0.001   0.000   0.002
 -1.088   1.014  -0.001   0.001   0.001   0.001   0.000  -0.002
  0.000  -0.001   1.122  -0.001   0.000  -0.800   0.002   0.001
  0.001   0.001  -0.001   1.123   0.000   0.002  -0.801   0.000
 -0.002   0.001   0.000   0.000   1.124   0.001  -0.001  -0.802
 -0.001   0.001  -0.800   0.002   0.001   0.647  -0.002  -0.001
  0.000   0.000   0.002  -0.801  -0.001  -0.002   0.648   0.000
  0.002  -0.002   0.001   0.000  -0.802  -0.001   0.000   0.648


----------------------------------------- Iteration    1(  10)  ---------------------------------------


    POTLOK:  cpu time    0.02: real time    0.02
    SETDIJ:  cpu time    0.02: real time    0.02
    EDDIAG:  cpu time    0.02: real time    0.02
  RMM-DIIS:  cpu time    0.04: real time    0.04
    ORTHCH:  cpu time    0.01: real time    0.01
       DOS:  cpu time    0.00: real time    0.00
    CHARGE:  cpu time    0.02: real time    0.02
    MIXING:  cpu time    0.00: real time    0.00
    --------------------------------------------
      LOOP:  cpu time    0.13: real time    0.14

 eigenvalue-minimisations  :   104
 total energy-change (2. order) :-0.1858448E-03  (-0.2498123E-04)
 number of electron      31.9999999 magnetization 
 augmentation part       -1.7273328 magnetization 

 Broyden mixing:
  rms(total) = 0.49921E-03    rms(broyden)= 0.49881E-03
  rms(prec ) = 0.97331E-03
  weight for this iteration     100.00

 eigenvalues of (default mixing * dielectric matrix)
  average eigenvalue GAMMA=   2.0331
  3.0908  2.6225  2.1707  0.9783  1.3031

 Free energy of the ion-electron system (eV)
  ---------------------------------------------------
  alpha Z        PSCENC =        12.68944982
  Ewald energy   TEWEN  =      -907.56782768
  -1/2 Hartree   DENC   =       -70.84746743
  -exchange  EXHF       =         0.00000000
  -V(xc)+E(xc)   XCENC  =       -72.90965875
  PAW double counting   =       307.80481863     -166.64878325
  entropy T*S    EENTRO =         0.00000000
  eigenvalues    EBANDS =        37.88042559
  atomic energy  EATOM  =       826.37398168
  ---------------------------------------------------
  free energy    TOTEN  =       -33.22506139 eV

  energy without entropy =      -33.22506139  energy(sigma->0) =      -33.22506139


--------------------------------------------------------------------------------------------------------




 average (electrostatic) potential at core
  the test charge radii are     0.9892
  (the norm of the test charge is              1.0000)
       1 -83.2267       2 -83.2246       3 -83.2249       4 -83.2269       5 -83.2264
       6 -83.2250       7 -83.2239       8 -83.2255
 
 
 
 E-fermi :   6.0558     XC(G=0):  -9.1306     alpha+bet :-11.7379


 k-point   1 :       0.0000    0.0000    0.0000
  band No.  band energies     occupation 
      1      -5.9495      2.00000
      2      -1.8742      2.00000
      3      -1.8724      2.00000
      4      -1.8662      2.00000
      5      -1.8605      2.00000
      6      -1.8581      2.00000
      7      -1.8547      2.00000
      8       3.0461      2.00000
      9       3.0483      2.00000
     10       3.0501      2.00000
     11       3.0537      2.00000
     12       3.0541      2.00000
     13       3.0555      2.00000
     14       5.9094      2.00000
     15       5.9284      2.00000
     16       5.9304      2.00000
     17       6.5892      0.00000
     18       6.5902      0.00000
     19       6.5944      0.00000
     20       6.5985      0.00000
     21       6.6022      0.00000
     22       6.6031      0.00000
     23       8.3753      0.00000
     24       8.3765      0.00000
     25       8.3880      0.00000
     26       9.0563      0.00000
     27      13.6117      0.00000
     28      13.6117      0.00000
     29      13.8266      0.00000
     30      15.8225      0.00000
     31      15.8255      0.00000
     32      15.8273      0.00000
     33      15.8289      0.00000
     34      15.8313      0.00000
     35      15.8360      0.00000
     36      16.9495      0.00000
     37      16.9499      0.00000
     38      16.9633      0.00000
     39      16.9766      0.00000
     40      16.9814      0.00000
     41      16.9863      0.00000
     42      16.9881      0.00000
     43      16.9930      0.00000
     44      16.9942      0.00000
     45      18.7205      0.00000
     46      18.7235      0.00000
     47      18.7278      0.00000
     48      18.7400      0.00000


--------------------------------------------------------------------------------------------------------


 soft charge-density along one line, spin component           1
         0         1         2         3         4         5         6         7         8         9
 total charge-density along one line
 
 pseudopotential strength for first ion, spin component:           1
 18.597  -0.001   0.000   0.000   0.000   0.000   0.000   0.000
 -0.001   0.006   0.000   0.000   0.000   0.000   0.000   0.000
  0.000   0.000   4.224   0.000   0.000  -0.005   0.000   0.000
  0.000   0.000   0.000   4.224   0.000   0.000  -0.005   0.000
  0.000   0.000   0.000   0.000   4.224   0.000   0.000  -0.005
  0.000   0.000  -0.005   0.000   0.000   0.005   0.000   0.000
  0.000   0.000   0.000  -0.005   0.000   0.000   0.005   0.000
  0.000   0.000   0.000   0.000  -0.005   0.000   0.000   0.005
 total augmentation occupancy for first ion, spin component:           1
  1.320  -1.088   0.000   0.001  -0.002  -0.001   0.000   0.002
 -1.088   1.014  -0.001   0.001   0.001   0.001   0.000  -0.002
  0.000  -0.001   1.122  -0.001   0.000  -0.801   0.002   0.001
  0.001   0.001  -0.001   1.123   0.000   0.002  -0.802   0.000
 -0.002   0.001   0.000   0.000   1.124   0.001  -0.001  -0.802
 -0.001   0.001  -0.801   0.002   0.001   0.648  -0.002  -0.001
  0.000   0.000   0.002  -0.802  -0.001  -0.002   0.649   0.000
  0.002  -0.002   0.001   0.000  -0.802  -0.001   0.000   0.649


----------------------------------------- Iteration    1(  11)  ---------------------------------------


    POTLOK:  cpu time    0.02: real time    0.02
    SETDIJ:  cpu time    0.02: real time    0.02
    EDDIAG:  cpu time    0.02: real time    0.02
  RMM-DIIS:  cpu time    0.05: real time    0.05
    ORTHCH:  cpu time    0.01: real time    0.01
       DOS:  cpu time    0.00: real time    0.00
    CHARGE:  cpu time    0.02: real time    0.02
    MIXING:  cpu time    0.00: real time    0.00
    --------------------------------------------
      LOOP:  cpu time    0.14: real time    0.14

 eigenvalue-minimisations  :   117
 total energy-change (2. order) : 0.4266817E-05  (-0.3578643E-06)
 number of electron      31.9999999 magnetization 
 augmentation part       -1.7274367 magnetization 

 Broyden mixing:
  rms(total) = 0.15457E-03    rms(broyden)= 0.15451E-03
  rms(prec ) = 0.29731E-03
  weight for this iteration     100.00

 eigenvalues of (default mixing * dielectric matrix)
  average eigenvalue GAMMA=   1.9859
  3.2076  2.7018  2.1094  1.9451  0.9756  0.9756

 Free energy of the ion-electron system (eV)
  ---------------------------------------------------
  alpha Z        PSCENC =        12.68944982
  Ewald energy   TEWEN  =      -907.56782768
  -1/2 Hartree   DENC   =       -70.82722382
  -exchange  EXHF       =         0.00000000
  -V(xc)+E(xc)   XCENC  =       -72.91094701
  PAW double counting   =       307.73418616     -166.57536299
  entropy T*S    EENTRO =         0.00000000
  eigenvalues    EBANDS =        37.85868672
  atomic energy  EATOM  =       826.37398168
  ---------------------------------------------------
  free energy    TOTEN  =       -33.22505712 eV

  energy without entropy =      -33.22505712  energy(sigma->0) =      -33.22505712


--------------------------------------------------------------------------------------------------------




 average (electrostatic) potential at core
  the test charge radii are     0.9892
  (the norm of the test charge is              1.0000)
       1 -83.2293       2 -83.2266       3 -83.2270       4 -83.2296       5 -83.2288
       6 -83.2272       7 -83.2258       8 -83.2277
 
 
 
 E-fermi :   6.0552     XC(G=0):  -9.1314     alpha+bet :-11.7379


 k-point   1 :       0.0000    0.0000    0.0000
  band No.  band energies     occupation 
      1      -5.9502      2.00000
      2      -1.8750      2.00000
      3      -1.8733      2.00000
      4      -1.8669      2.00000
      5      -1.8612      2.00000
      6      -1.8587      2.00000
      7      -1.8553      2.00000
      8       3.0454      2.00000
      9       3.0477      2.00000
     10       3.0495      2.00000
     11       3.0531      2.00000
     12       3.0535      2.00000
     13       3.0550      2.00000
     14       5.9086      2.00000
     15       5.9276      2.00000
     16       5.9296      2.00000
     17       6.5885      0.00000
     18       6.5894      0.00000
     19       6.5936      0.00000
     20       6.5978      0.00000
     21       6.6015      0.00000
     22       6.6024      0.00000
     23       8.3749      0.00000
     24       8.3760      0.00000
     25       8.3875      0.00000
     26       9.0553      0.00000
     27      13.6114      0.00000
     28      13.6115      0.00000
     29      13.8248      0.00000
     30      15.8218      0.00000
     31      15.8248      0.00000
     32      15.8266      0.00000
     33      15.8281      0.00000
     34      15.8305      0.00000
     35      15.8354      0.00000
     36      16.9489      0.00000
     37      16.9493      0.00000
     38      16.9628      0.00000
     39      16.9759      0.00000
     40      16.9807      0.00000
     41      16.9856      0.00000
     42      16.9874      0.00000
     43      16.9924      0.00000
     44      16.9936      0.00000
     45      18.7214      0.00000
     46      18.7236      0.00000
     47      18.7276      0.00000
     48      18.7396      0.00000


--------------------------------------------------------------------------------------------------------


 soft charge-density along one line, spin component           1
         0         1         2         3         4         5         6         7         8         9
 total charge-density along one line
 
 pseudopotential strength for first ion, spin component:           1
 18.598  -0.001   0.000   0.000   0.000   0.000   0.000   0.000
 -0.001   0.006   0.000   0.000   0.000   0.000   0.000   0.000
  0.000   0.000   4.224   0.000   0.000  -0.005   0.000   0.000
  0.000   0.000   0.000   4.224   0.000   0.000  -0.005   0.000
  0.000   0.000   0.000   0.000   4.224   0.000   0.000  -0.005
  0.000   0.000  -0.005   0.000   0.000   0.005   0.000   0.000
  0.000   0.000   0.000  -0.005   0.000   0.000   0.005   0.000
  0.000   0.000   0.000   0.000  -0.005   0.000   0.000   0.005
 total augmentation occupancy for first ion, spin component:           1
  1.320  -1.087   0.000   0.001  -0.002  -0.001   0.000   0.002
 -1.087   1.013  -0.001   0.001   0.001   0.001   0.000  -0.002
  0.000  -0.001   1.122  -0.001   0.000  -0.801   0.002   0.001
  0.001   0.001  -0.001   1.123   0.000   0.002  -0.802   0.000
 -0.002   0.001   0.000   0.000   1.124   0.001  -0.001  -0.802
 -0.001   0.001  -0.801   0.002   0.001   0.648  -0.002  -0.001
  0.000   0.000   0.002  -0.802  -0.001  -0.002   0.649   0.000
  0.002  -0.002   0.001   0.000  -0.802  -0.001   0.000   0.649


----------------------------------------- Iteration    1(  12)  ---------------------------------------


    POTLOK:  cpu time    0.02: real time    0.02
    SETDIJ:  cpu time    0.02: real time    0.02
    EDDIAG:  cpu time    0.02: real time    0.02
  RMM-DIIS:  cpu time    0.05: real time    0.05
    ORTHCH:  cpu time    0.01: real time    0.01
       DOS:  cpu time    0.00: real time    0.00
    CHARGE:  cpu time    0.02: real time    0.02
    MIXING:  cpu time    0.00: real time    0.00
    --------------------------------------------
      LOOP:  cpu time    0.14: real time    0.15

 eigenvalue-minimisations  :   126
 total energy-change (2. order) :-0.5318734E-06  (-0.4875984E-07)
 number of electron      31.9999999 magnetization 
 augmentation part       -1.7274261 magnetization 

 Broyden mixing:
  rms(total) = 0.57315E-04    rms(broyden)= 0.57285E-04
  rms(prec ) = 0.83044E-04
  weight for this iteration     100.00

 eigenvalues of (default mixing * dielectric matrix)
  average eigenvalue GAMMA=   1.9896
  3.2006  2.7332  2.4497  2.0768  1.5100  0.9982  0.9590

 Free energy of the ion-electron system (eV)
  ---------------------------------------------------
  alpha Z        PSCENC =        12.68944982
  Ewald energy   TEWEN  =      -907.56782768
  -1/2 Hartree   DENC   =       -70.83122866
  -exchange  EXHF       =         0.00000000
  -V(xc)+E(xc)   XCENC  =       -72.91089907
  PAW double counting   =       307.73996151     -166.58126399
  entropy T*S    EENTRO =         0.00000000
  eigenvalues    EBANDS =        37.86276874
  atomic energy  EATOM  =       826.37398168
  ---------------------------------------------------
  free energy    TOTEN  =       -33.22505765 eV

  energy without entropy =      -33.22505765  energy(sigma->0) =      -33.22505765


--------------------------------------------------------------------------------------------------------




 average (electrostatic) potential at core
  the test charge radii are     0.9892
  (the norm of the test charge is              1.0000)
       1 -83.2289       2 -83.2261       3 -83.2266       4 -83.2292       5 -83.2284
       6 -83.2267       7 -83.2253       8 -83.2273
 
 
 
 E-fermi :   6.0556     XC(G=0):  -9.1311     alpha+bet :-11.7379


 k-point   1 :       0.0000    0.0000    0.0000
  band No.  band energies     occupation 
      1      -5.9500      2.00000
      2      -1.8749      2.00000
      3      -1.8731      2.00000
      4      -1.8668      2.00000
      5      -1.8610      2.00000
      6      -1.8586      2.00000
      7      -1.8552      2.00000
      8       3.0455      2.00000
      9       3.0478      2.00000
     10       3.0496      2.00000
     11       3.0532      2.00000
     12       3.0536      2.00000
[...]
    MIXING:  cpu time    0.00: real time    0.00
    --------------------------------------------
      LOOP:  cpu time    0.14: real time    0.15

 Broyden mixing:
  rms(total) = 0.60005E-02    rms(broyden)= 0.60002E-02
  rms(prec ) = 0.10238E-01
  weight for this iteration     100.00

 eigenvalues of (default mixing * dielectric matrix)
  average eigenvalue GAMMA=   2.0761
  3.0360  2.4847  1.1278  1.6559

 Free energy of the ion-electron system (eV)
  ---------------------------------------------------
  -1/2 Hartree   DENC   =        -4.61587044
  -V(xc)+E(xc)   XCENC  =         0.95085184
  PAW double counting   =         3.09468741       -3.14396146
  entropy T*S    EENTRO =         0.00000000
  eigenvalues    EBANDS =       -24.52567921
  ---------------------------------------------------
  free energy    TOTEN  =       -28.23997186 eV

  energy without entropy =      -28.23997186


----------------------------------------- Iteration    3(   7)  ---------------------------------------


   POT+DIJ:  cpu time    0.08: real time    0.08
    HAMIL1:  cpu time    0.00: real time    0.01
    LRDIAG:  cpu time    0.01: real time    0.01
    LRDIIS:  cpu time    0.02: real time    0.02
    LRDIAG:  cpu time    0.01: real time    0.01
    MIXING:  cpu time    0.00: real time    0.00
    --------------------------------------------
      LOOP:  cpu time    0.15: real time    0.15

 Broyden mixing:
  rms(total) = 0.50899E-03    rms(broyden)= 0.50818E-03
  rms(prec ) = 0.90764E-03
  weight for this iteration     100.00

 eigenvalues of (default mixing * dielectric matrix)
  average eigenvalue GAMMA=   1.9788
  3.0943  2.4026  1.1122  1.7144  1.5703

 Free energy of the ion-electron system (eV)
  ---------------------------------------------------
  -1/2 Hartree   DENC   =        -4.62444500
  -V(xc)+E(xc)   XCENC  =         0.95713526
  PAW double counting   =         3.06321710       -3.11201940
  entropy T*S    EENTRO =         0.00000000
  eigenvalues    EBANDS =       -24.55692112
  ---------------------------------------------------
  free energy    TOTEN  =       -28.27303316 eV

  energy without entropy =      -28.27303316


----------------------------------------- Iteration    3(   8)  ---------------------------------------


   POT+DIJ:  cpu time    0.07: real time    0.08
    HAMIL1:  cpu time    0.00: real time    0.01
    LRDIAG:  cpu time    0.01: real time    0.01
    LRDIIS:  cpu time    0.02: real time    0.02
    LRDIAG:  cpu time    0.01: real time    0.01
    MIXING:  cpu time    0.00: real time    0.00
    --------------------------------------------
      LOOP:  cpu time    0.15: real time    0.16

 Broyden mixing:
  rms(total) = 0.27084E-03    rms(broyden)= 0.27073E-03
  rms(prec ) = 0.39742E-03
  weight for this iteration     100.00

 eigenvalues of (default mixing * dielectric matrix)
  average eigenvalue GAMMA=   2.0079
  3.1118  2.6705  2.2534  1.6921  1.0965  1.2231

 Free energy of the ion-electron system (eV)
  ---------------------------------------------------
  -1/2 Hartree   DENC   =        -4.62725527
  -V(xc)+E(xc)   XCENC  =         0.95785703
  PAW double counting   =         3.06733543       -3.11620700
  entropy T*S    EENTRO =         0.00000000
  eigenvalues    EBANDS =       -24.55765328
  ---------------------------------------------------
  free energy    TOTEN  =       -28.27592309 eV

  energy without entropy =      -28.27592309


----------------------------------------- Iteration    3(   9)  ---------------------------------------


   POT+DIJ:  cpu time    0.08: real time    0.08
    HAMIL1:  cpu time    0.01: real time    0.01
    LRDIAG:  cpu time    0.01: real time    0.01
    LRDIIS:  cpu time    0.02: real time    0.02
    LRDIAG:  cpu time    0.01: real time    0.01
    MIXING:  cpu time    0.00: real time    0.00
    --------------------------------------------
      LOOP:  cpu time    0.15: real time    0.16

 Broyden mixing:
  rms(total) = 0.83868E-04    rms(broyden)= 0.83843E-04
  rms(prec ) = 0.12868E-03
  weight for this iteration     100.00

 eigenvalues of (default mixing * dielectric matrix)
  average eigenvalue GAMMA=   1.9010
  3.1859  2.7438  2.4275  1.6707  1.2591  0.9423  1.0777

 Free energy of the ion-electron system (eV)
  ---------------------------------------------------
  -1/2 Hartree   DENC   =        -4.62692111
  -V(xc)+E(xc)   XCENC  =         0.95781051
  PAW double counting   =         3.06977105       -3.11868470
  entropy T*S    EENTRO =         0.00000000
  eigenvalues    EBANDS =       -24.55805000
  ---------------------------------------------------
  free energy    TOTEN  =       -28.27607424 eV

  energy without entropy =      -28.27607424


----------------------------------------- Iteration    3(  10)  ---------------------------------------


   POT+DIJ:  cpu time    0.08: real time    0.08
    HAMIL1:  cpu time    0.01: real time    0.01
    LRDIAG:  cpu time    0.01: real time    0.01
    LRDIIS:  cpu time    0.02: real time    0.02
    LRDIAG:  cpu time    0.01: real time    0.01
    MIXING:  cpu time    0.00: real time    0.00
    --------------------------------------------
      LOOP:  cpu time    0.15: real time    0.15

 Broyden mixing:
  rms(total) = 0.96994E-05    rms(broyden)= 0.96773E-05
  rms(prec ) = 0.16916E-04
  weight for this iteration     100.00

 eigenvalues of (default mixing * dielectric matrix)
  average eigenvalue GAMMA=   1.8496
  3.2005  2.7738  2.4487  1.6689  1.4798  0.9690  1.0796  1.1770

 Free energy of the ion-electron system (eV)
  ---------------------------------------------------
  -1/2 Hartree   DENC   =        -4.62705007
  -V(xc)+E(xc)   XCENC  =         0.95784261
  PAW double counting   =         3.07080124       -3.11973248
  entropy T*S    EENTRO =         0.00000000
  eigenvalues    EBANDS =       -24.55815874
  ---------------------------------------------------
  free energy    TOTEN  =       -28.27629744 eV

  energy without entropy =      -28.27629744


----------------------------------------- Iteration    3(  11)  ---------------------------------------


   POT+DIJ:  cpu time    0.08: real time    0.08
    HAMIL1:  cpu time    0.00: real time    0.01
    LRDIAG:  cpu time    0.01: real time    0.01
    LRDIIS:  cpu time    0.02: real time    0.02
    LRDIAG:  cpu time    0.01: real time    0.01
    MIXING:  cpu time    0.00: real time    0.00
    --------------------------------------------
      LOOP:  cpu time    0.15: real time    0.16

 Broyden mixing:
  rms(total) = 0.38026E-05    rms(broyden)= 0.38004E-05
  rms(prec ) = 0.56545E-05
  weight for this iteration     100.00

 eigenvalues of (default mixing * dielectric matrix)
  average eigenvalue GAMMA=   1.8633
  3.2080  2.7855  2.4466  2.1988  1.6666  1.3483  1.1064  0.9800  1.0296

 Free energy of the ion-electron system (eV)
  ---------------------------------------------------
  -1/2 Hartree   DENC   =        -4.62703287
  -V(xc)+E(xc)   XCENC  =         0.95783800
  PAW double counting   =         3.07076725       -3.11969791
  entropy T*S    EENTRO =         0.00000000
  eigenvalues    EBANDS =       -24.55816191
  ---------------------------------------------------
  free energy    TOTEN  =       -28.27628743 eV

  energy without entropy =      -28.27628743


----------------------------------------- Iteration    3(  12)  ---------------------------------------


   POT+DIJ:  cpu time    0.08: real time    0.08
    HAMIL1:  cpu time    0.01: real time    0.01
    LRDIAG:  cpu time    0.01: real time    0.01
    LRDIIS:  cpu time    0.02: real time    0.02
    LRDIAG:  cpu time    0.01: real time    0.01
    MIXING:  cpu time    0.00: real time    0.00
    --------------------------------------------
      LOOP:  cpu time    0.15: real time    0.16

 Broyden mixing:
  rms(total) = 0.13116E-05    rms(broyden)= 0.13112E-05
  rms(prec ) = 0.18660E-05
  weight for this iteration     100.00

 eigenvalues of (default mixing * dielectric matrix)
  average eigenvalue GAMMA=   1.8555
  3.2079  2.8292  2.4682  2.4682  1.6725  1.3977  1.3977  1.0037  1.0037  1.1061

 Free energy of the ion-electron system (eV)
  ---------------------------------------------------
  -1/2 Hartree   DENC   =        -4.62703956
  -V(xc)+E(xc)   XCENC  =         0.95783901
  PAW double counting   =         3.07070025       -3.11962981
  entropy T*S    EENTRO =         0.00000000
  eigenvalues    EBANDS =       -24.55816102
  ---------------------------------------------------
  free energy    TOTEN  =       -28.27629112 eV

  energy without entropy =      -28.27629112


----------------------------------------- Iteration    3(  13)  ---------------------------------------


   POT+DIJ:  cpu time    0.07: real time    0.08
    HAMIL1:  cpu time    0.00: real time    0.01
    LRDIAG:  cpu time    0.01: real time    0.01
    LRDIIS:  cpu time    0.02: real time    0.02
    LRDIAG:  cpu time    0.01: real time    0.01
    MIXING:  cpu time    0.00: real time    0.00
    --------------------------------------------
      LOOP:  cpu time    0.15: real time    0.16

 Broyden mixing:
  rms(total) = 0.26875E-06    rms(broyden)= 0.26859E-06
  rms(prec ) = 0.49498E-06
  weight for this iteration     100.00

 eigenvalues of (default mixing * dielectric matrix)
  average eigenvalue GAMMA=   1.8230
  3.2130  2.8242  2.6296  2.4355  1.6845  1.7017  1.0021  1.0021  1.1044  1.2278
  1.2278

 Free energy of the ion-electron system (eV)
  ---------------------------------------------------
  -1/2 Hartree   DENC   =        -4.62703837
  -V(xc)+E(xc)   XCENC  =         0.95783839
  PAW double counting   =         3.07066754       -3.11959649
  entropy T*S    EENTRO =         0.00000000
  eigenvalues    EBANDS =       -24.55815984
  ---------------------------------------------------
  free energy    TOTEN  =       -28.27628877 eV

  energy without entropy =      -28.27628877


------------------------ aborting loop because EDIFF is reached ----------------------------------------


 change of polarisation eV/A/(eV/A) component  3 :    -0.146     0.165    50.515
 dielectric tensor                  component  3 :    -0.162     0.183    56.850


--------------------------------------------------------------------------------------------------------


    FORLOC:  cpu time    0.00: real time    0.00
    FORNL :  cpu time    0.09: real time    0.09
    STRESS:  cpu time    0.28: real time    0.28
    FORCOR:  cpu time    0.02: real time    0.02
    FORLOC:  cpu time    0.00: real time    0.00
    FORNL :  cpu time    0.09: real time    0.09
    STRESS:  cpu time    0.28: real time    0.28
    FORCOR:  cpu time    0.02: real time    0.03
    FORNLD:  cpu time    0.01: real time    0.01

 PIEZOELECTRIC TENSOR FIELD DIRECTION 3  (e Angst)
 -----------------------------------------------------------------------------
    -0.00642  0.00205  0.00062           (  0.00001  0.00001  0.00000)
     0.00205  0.00388  0.00139           (  0.00001  0.00001  0.00002)
     0.00062  0.00139 -0.00255           (  0.00000  0.00002 -0.00002)

 PIEZOELECTRIC TENSOR FIELD DIRECTION 3  (C/m^2)
 -----------------------------------------------------------------------------
    -0.00063  0.00020  0.00006
     0.00020  0.00038  0.00014
     0.00006  0.00014 -0.00025


      POSITION         DIRECTION 3           BORN EFFECTIVE CHARGE    (rigid.aug.   ionic)
 -----------------------------------------------------------------------------------------
      5.46879      5.47000      5.46780    -0.05172 -0.12912 -5.74529 (  0.21594  4.00000)
      1.36750      1.36530      1.36900    -0.06016  0.04347 -5.79245 (  0.21592  4.00000)
      2.73280      2.73650      0.00355     0.03292 -0.08884 -5.77961 (  0.21592  4.00000)
      4.10400      4.10605      1.36867    -0.09079 -0.03195 -5.73941 (  0.21594  4.00000)
      2.73855      0.00117      2.73514     0.05885  0.07777 -5.76556 (  0.21594  4.00000)
      4.10367      1.36764      4.10585     0.06820  0.02458 -5.79037 (  0.21592  4.00000)
      0.00014      2.73835      2.73489    -0.01889  0.12360 -5.81780 (  0.21591  4.00000)
      1.37085      4.10239      4.10370     0.10097 -0.05827 -5.77732 (  0.21593  4.00000)
 -----------------------------------------------------------------------------------------
    total drift (improves with k-points):   0.03938 -0.03876-46.20781




--------------------------------------------------------------------------------------------------------


  LATTYP: Found a simple cubic cell.
 ALAT       =     5.4700000000
  
  Lattice vectors:
  
 A1 = (   5.4700000000,   0.0000000000,   0.0000000000)
 A2 = (   0.0000000000,   5.4700000000,   0.0000000000)
 A3 = (   0.0000000000,   0.0000000000,   5.4700000000)


Analysis of symmetry for initial positions (statically):
=====================================================================
 Subroutine PRICEL returns:
 Original cell was already a primitive cell.
 

 Routine SETGRP: Setting up the symmetry group for a 
 simple cubic supercell.


 Subroutine GETGRP returns: Found  1 space group operations
 (whereof  1 operations were pure point group operations)
 out of a pool of 48 trial point group operations.


The static configuration has the point symmetry C_1 .


Analysis of symmetry for dynamics (positions and initial velocities):
=====================================================================
 Subroutine PRICEL returns:
 Original cell was already a primitive cell.
 

 Routine SETGRP: Setting up the symmetry group for a 
 simple cubic supercell.


 Subroutine GETGRP returns: Found  1 space group operations
 (whereof  1 operations were pure point group operations)
 out of a pool of 48 trial point group operations.


The dynamic configuration has the point symmetry C_1 .


 MACROSCOPIC STATIC DIELECTRIC TENSOR (including local field effects in DFT)
 ------------------------------------------------------
          56.862431     0.186666    -0.161936
           0.186658    56.862472     0.182760
          -0.161946     0.182752    56.850343
 ------------------------------------------------------



--------------------------------------------------------------------------------------------------------


  LATTYP: Found a simple cubic cell.
 ALAT       =     5.4700000000
  
  Lattice vectors:
  
 A1 = (   5.4700000000,   0.0000000000,   0.0000000000)
 A2 = (   0.0000000000,   5.4700000000,   0.0000000000)
 A3 = (   0.0000000000,   0.0000000000,   5.4700000000)


Analysis of symmetry for initial positions (statically):
=====================================================================
 Subroutine PRICEL returns:
 Original cell was already a primitive cell.
 

 Routine SETGRP: Setting up the symmetry group for a 
 simple cubic supercell.


 Subroutine GETGRP returns: Found  1 space group operations
 (whereof  1 operations were pure point group operations)
 out of a pool of 48 trial point group operations.


The static configuration has the point symmetry C_1 .


Analysis of symmetry for dynamics (positions and initial velocities):
=====================================================================
 Subroutine PRICEL returns:
 Original cell was already a primitive cell.
 

 Routine SETGRP: Setting up the symmetry group for a 
 simple cubic supercell.


 Subroutine GETGRP returns: Found  1 space group operations
 (whereof  1 operations were pure point group operations)
 out of a pool of 48 trial point group operations.


The dynamic configuration has the point symmetry C_1 .
 
 KPOINTS: Automatic mesh                          

Automatic generation of k-mesh.
Space group operators:
 irot       det(A)        alpha          n_x          n_y          n_z        tau_x        tau_y        tau_z
    1     1.000000     0.000001     1.000000     0.000000     0.000000     0.000000     0.000000     0.000000
 
 Subroutine IBZKPT returns following result:
 ===========================================
 
 Found      1 irreducible k-points:
 
 Following reciprocal coordinates:
            Coordinates               Weight
  0.000000  0.000000  0.000000      1.000000
 
 Following cartesian coordinates:
            Coordinates               Weight
  0.000000  0.000000  0.000000      1.000000
 


--------------------------------------------------------------------------------------------------------




 MACROSCOPIC STATIC DIELECTRIC TENSOR (including local field effects in DFT)
 ------------------------------------------------------
          56.862431     0.186666    -0.161936
           0.186658    56.862472     0.182760
          -0.161946     0.182752    56.850343
 ------------------------------------------------------


 PIEZOELECTRIC TENSOR  for field in x, y, z        (e  Angst)
          XX          YY          ZZ          XY          YZ          ZX
  --------------------------------------------------------------------------------
  x    -0.00171    -0.00309     0.00766     0.00141    -0.00052     0.00156
  y     0.00107     0.00110     0.00116    -0.00259    -0.00100    -0.00371
  z    -0.00642     0.00388    -0.00255     0.00205     0.00139     0.00062

 PIEZOELECTRIC TENSOR  for field in x, y, z        (C/m^2)
          XX          YY          ZZ          XY          YZ          ZX
  --------------------------------------------------------------------------------
  x    -0.00017    -0.00030     0.00075     0.00014    -0.00005     0.00015
  y     0.00010     0.00011     0.00011    -0.00025    -0.00010    -0.00036
  z    -0.00063     0.00038    -0.00025     0.00020     0.00014     0.00006
 
 BORN EFFECTIVE CHARGES (in e, cummulative output)
 -------------------------------------------------
 ion    1
    1    -5.75440    -0.01534     0.02171
    2    -0.05826    -5.73435     0.14992
    3    -0.05172    -0.12912    -5.74529
 ion    2
    1    -5.80455    -0.01139     0.16331
    2    -0.03534    -5.80446     0.00027
    3    -0.06016     0.04347    -5.79245
 ion    3
    1    -5.79030     0.00712    -0.02607
    2     0.04892    -5.80860     0.07692
    3     0.03292    -0.08884    -5.77961
 ion    4
    1    -5.73354     0.00014     0.11320
    2     0.02424    -5.73428     0.00394
    3    -0.09079    -0.03195    -5.73941
 ion    5
    1    -5.75623     0.03406    -0.01235
    2    -0.03203    -5.73854    -0.08885
    3     0.05885     0.07777    -5.76556
 ion    6
    1    -5.77732    -0.07008    -0.15290
    2     0.03774    -5.79820    -0.01159
    3     0.06820     0.02458    -5.79037
 ion    7
    1    -5.80822    -0.04812     0.03767
    2     0.02076    -5.82760    -0.15787
    3    -0.01889     0.12360    -5.81780
 ion    8
    1    -5.78711     0.06505    -0.10506
    2    -0.04523    -5.76604    -0.01091
    3     0.10097    -0.05827    -5.77732


--------------------------------------------------------------------------------------------------------


     LOOP+:  cpu time   19.62: real time   20.10
    4ORBIT:  cpu time    0.00: real time    0.00

 total amount of memory used by VASP on root node    32224. kBytes
========================================================================

   base      :      30000. kBytes
   nonl-proj :        202. kBytes
   fftplans  :        782. kBytes
   grid      :       1198. kBytes
   one-center:         24. kBytes
   wavefun   :         18. kBytes
 
  
  
 General timing and accounting informations for this job:
 ========================================================
  
                  Total CPU time used (sec):       20.475
                            User time (sec):       16.555
                          System time (sec):        3.919
                         Elapsed time (sec):       22.601
  
                   Maximum memory used (kb):       61808.
                   Average memory used (kb):           0.
  
                          Minor page faults:       209064
                          Major page faults:            0
                 Voluntary context switches:         1432
