 vasp.5.3.3 18Dez12 (build Jan  9 2014 12:00:49) complex                        
  
 executed on             LinuxIFC date 2014.01.29  10:02:30
 running on   48 total cores
 distrk:  each k-point on   48 cores,    1 groups
 distr:  one band on NCORES_PER_BAND=   1 cores,   48 groups


--------------------------------------------------------------------------------------------------------


 INCAR:
 POTCAR:    PAW Si                                

 ----------------------------------------------------------------------------- 
|                                                                             |
|           W    W    AA    RRRRR   N    N  II  N    N   GGGG   !!!           |
|           W    W   A  A   R    R  NN   N  II  NN   N  G    G  !!!           |
|           W    W  A    A  R    R  N N  N  II  N N  N  G       !!!           |
|           W WW W  AAAAAA  RRRRR   N  N N  II  N  N N  G  GGG   !            |
|           WW  WW  A    A  R   R   N   NN  II  N   NN  G    G                |
|           W    W  A    A  R    R  N    N  II  N    N   GGGG   !!!           |
|                                                                             |
|      For optimal performance we recommend that you set                      |
|        NPAR = 4 - approx SQRT( number of cores)                             |
|      (number of cores/NPAR must be integer)                                 |
|      This setting will greatly improve the performance of VASP for DFT.     |
|      The default NPAR=number of cores might be grossly inefficient          |
|      on modern multi-core architectures or massively parallel machines.     |
|      Do your own testing.                                                   |
|      Unfortunately you need to use the default for hybrid, GW and RPA       |
|      calculations.                                                          |
|                                                                             |
 ----------------------------------------------------------------------------- 

 POTCAR:    PAW Si                                
   VRHFIN =Si: s2p2                                                             
   LEXCH  = 91                                                                  
   EATOM  =   103.3076 eV,    7.5929 Ry                                         
                                                                                
   TITEL  = PAW Si                                                              
   LULTRA =        F    use ultrasoft PP ?                                      
   IUNSCR =        1    unscreen: 0-lin 1-nonlin 2-no                           
   RPACOR =    1.500    partial core radius                                     
   POMASS =   28.085; ZVAL   =    4.000    mass and valenz                      
   RCORE  =    1.900    outmost cutoff radius                                   
   RWIGS  =    2.480; RWIGS  =    1.312    wigner-seitz radius (au A)           
   ENMAX  =  245.435; ENMIN  =  184.076 eV                                      
   ICORE  =        2    local potential                                         
   LCOR   =        T    correct aug charges                                     
   LPAW   =        T    paw PP                                                  
   EAUG   =  322.069                                                            
   DEXC   =    -.001                                                            
   RMAX   =    2.943    core radius for proj-oper                               
   RAUG   =    1.300    factor for augmentation sphere                          
   RDEP   =    1.993    core radius for depl-charge                             
   QCUT   =   -4.247; QGAM   =    8.494    optimization parameters              
                                                                                
   Description                                                                  
     l     E      TYP  RCUT    TYP  RCUT                                        
     0   .000     23  1.900                                                     
     0   .000     23  1.900                                                     
     1   .000     23  1.900                                                     
     1   .000     23  1.900                                                     
     2   .000      7  1.900                                                     
  local pseudopotential read in
  partial core-charges read in
  atomic valenz-charges read in
  non local Contribution for L=           0  read in
    real space projection operators read in
  non local Contribution for L=           0  read in
    real space projection operators read in
  non local Contribution for L=           1  read in
    real space projection operators read in
  non local Contribution for L=           1  read in
    real space projection operators read in
    PAW grid and wavefunctions read in
 
   number of l-projection  operators is LMAX  =           4
   number of lm-projection operators is LMMAX =           8
 
  PAW Si                                :
 energy of atom  1       EATOM= -103.3076
 kinetic energy error for atom=    0.0109 (will be added to EATOM!!)
 
 
 POSCAR: OUTCAR.0010.+1.out 1.0e-02              
  positions in cartesian coordinates
  No initial velocities read in
 exchange correlation table for  LEXCH =        7
   RHO(1)=    0.500       N(1)  =     2000
   RHO(2)=  100.500       N(2)  =     4000

 VTST: version 3.0c, (01/09/14)

 CHAIN: initializing optimizer
 
 OPT: Using VASP Dynamics algorithm
 CHAIN: Read ICHAIN            0
 
 POSCAR: OUTCAR.0010.+1.out 1.0e-02              
  positions in cartesian coordinates
  No initial velocities read in
 


--------------------------------------------------------------------------------------------------------


 ion  position               nearest neighbor table
   1  1.000  0.001  0.000-   6 2.37   4 2.37   8 2.37   2 2.37
   2  0.251  0.250  0.250-   5 2.37   3 2.37   7 2.37   1 2.37
   3  0.500  0.500  1.000-   8 2.37   4 2.37   6 2.37   2 2.37
   4  0.750  0.750  0.250-   3 2.37   1 2.37   7 2.37   5 2.37
   5  0.500  0.000  0.500-   2 2.37   8 2.37   6 2.37   4 2.37
   6  0.750  0.250  0.750-   1 2.37   7 2.37   3 2.37   5 2.37
   7  0.000  0.500  0.501-   6 2.37   4 2.37   2 2.37   8 2.37
   8  0.250  0.751  0.751-   3 2.37   5 2.37   1 2.37   7 2.37
 
  LATTYP: Found a simple cubic cell.
 ALAT       =     5.4700000000
  
  Lattice vectors:
  
 A1 = (   5.4700000000,   0.0000000000,   0.0000000000)
 A2 = (   0.0000000000,   5.4700000000,   0.0000000000)
 A3 = (   0.0000000000,   0.0000000000,   5.4700000000)


Analysis of symmetry for initial positions (statically):
=====================================================================
 Subroutine PRICEL returns:
 Original cell was already a primitive cell.
 

 Routine SETGRP: Setting up the symmetry group for a 
 simple cubic supercell.


 Subroutine GETGRP returns: Found  1 space group operations
 (whereof  1 operations were pure point group operations)
 out of a pool of 48 trial point group operations.


The static configuration has the point symmetry C_1 .


Analysis of symmetry for dynamics (positions and initial velocities):
=====================================================================
 Subroutine PRICEL returns:
 Original cell was already a primitive cell.
 

 Routine SETGRP: Setting up the symmetry group for a 
 simple cubic supercell.


 Subroutine GETGRP returns: Found  1 space group operations
 (whereof  1 operations were pure point group operations)
 out of a pool of 48 trial point group operations.


The dynamic configuration has the point symmetry C_1 .


 irot  :   1
 --------------------------------------------------------------------
 isymop:   1   0   0
           0   1   0
           0   0   1

 gtrans:     0.0000000     0.0000000     0.0000000

 ptrans:     0.0000000     0.0000000     0.0000000
 rotmap:
 (   1->   1)  (   2->   2)  (   3->   3)  (   4->   4)  (   5->   5) 
 (   6->   6)  (   7->   7)  (   8->   8) 
 
 
 KPOINTS: Automatic mesh                          

Automatic generation of k-mesh.
Space group operators:
 irot       det(A)        alpha          n_x          n_y          n_z        tau_x        tau_y        tau_z
    1     1.000000     0.000001     1.000000     0.000000     0.000000     0.000000     0.000000     0.000000
 
 Subroutine IBZKPT returns following result:
 ===========================================
 
 Found      1 irreducible k-points:
 
 Following reciprocal coordinates:
            Coordinates               Weight
  0.000000  0.000000  0.000000      1.000000
 
 Following cartesian coordinates:
            Coordinates               Weight
  0.000000  0.000000  0.000000      1.000000
 
 
 Subroutine IBZKPT_HF returns following result:
 ==============================================
 
 Found      1 k-points in 1st BZ
 the following      1 k-points will be used (e.g. in the exchange kernel)
 Following reciprocal coordinates:   # in IRBZ
  0.000000  0.000000  0.000000       1 t-inv F


--------------------------------------------------------------------------------------------------------




 Dimension of arrays:
   k-points           NKPTS =      1   k-points in BZ     NKDIM =      1   number of bands    NBANDS=     48
   number of dos      NEDOS =    301   number of ions     NIONS =      8
   non local maximal  LDIM  =      4   non local SUM 2l+1 LMDIM =      8
   total plane-waves  NPLWV =  21952
   max r-space proj   IRMAX =      1   max aug-charges    IRDMAX=  36071
   dimension x,y,z NGX =    28 NGY =   28 NGZ =   28
   dimension x,y,z NGXF=    56 NGYF=   56 NGZF=   56
   support grid    NGXF=   112 NGYF=  112 NGZF=  112
   ions per type =               8
 NGX,Y,Z   is equivalent  to a cutoff of   8.51,  8.51,  8.51 a.u.
 NGXF,Y,Z  is equivalent  to a cutoff of  17.02, 17.02, 17.02 a.u.


 I would recommend the setting:
   dimension x,y,z NGX =    19 NGY =   19 NGZ =   19
 SYSTEM =  NAPTHA04                                
 POSCAR =  OUTCAR.0010.+1.out 1.0e-02              

 Startparameter for this run:
   NWRITE =      3    write-flag & timer
   PREC   = normal    normal or accurate (medium, high low for compatibility)
   ISTART =      0    job   : 0-new  1-cont  2-samecut
   ICHARG =      2    charge: 1-file 2-atom 10-const
   ISPIN  =      1    spin polarized calculation?
   LNONCOLLINEAR =      F non collinear calculations
   LSORBIT =      F    spin-orbit coupling
   INIWAV =      1    electr: 0-lowe 1-rand  2-diag
   LASPH  =      F    aspherical Exc in radial PAW
   METAGGA=      F    non-selfconsistent MetaGGA calc.

 Electronic Relaxation 1
   ENCUT  =  200.0 eV  14.70 Ry    3.83 a.u.   6.31  6.31  6.31*2*pi/ulx,y,z
   ENINI  =  200.0     initial cutoff
   ENAUG  =  322.1 eV  augmentation charge cutoff
   NELM   =     60;   NELMIN=  2; NELMDL= -5     # of ELM steps 
   EDIFF  = 0.1E-07   stopping-criterion for ELM
   LREAL  =      F    real-space projection
   NLSPLINE    = F    spline interpolate recip. space projectors
   LCOMPAT=      F    compatible to vasp.4.4
   GGA_COMPAT  = T    GGA compatible to vasp.4.4-vasp.4.6
   LMAXPAW     = -100 max onsite density
   LMAXMIX     =    2 max onsite mixed and CHGCAR
   VOSKOWN=      0    Vosko Wilk Nusair interpolation
   ROPT   =    0.00000
 Ionic relaxation
   EDIFFG = 0.1E-06   stopping-criterion for IOM
   NSW    =      0    number of steps for IOM
   NBLOCK =      1;   KBLOCK =      1    inner block; outer block 
   IBRION =     -1    ionic relax: 0-MD 1-quasi-New 2-CG
   NFREE  =      0    steps in history (QN), initial steepest desc. (CG)
   ISIF   =      2    stress and relaxation
   IWAVPR =     10    prediction:  0-non 1-charg 2-wave 3-comb
   ISYM   =      2    0-nonsym 1-usesym 2-fastsym
   LCORR  =      T    Harris-Foulkes like correction to forces

   POTIM  = 0.5000    time-step for ionic-motion
   TEIN   =    0.0    initial temperature
   TEBEG  =    0.0;   TEEND  =   0.0 temperature during run
   SMASS  =  -3.00    Nose mass-parameter (am)
   estimated Nose-frequenzy (Omega)   =  0.10E-29 period in steps =****** mass=  -0.684E-27a.u.
   SCALEE = 1.0000    scale energy and forces
   NPACO  =    256;   APACO  = 16.0  distance and # of slots for P.C.
   PSTRESS=    0.0 pullay stress

  Mass of Ions in am
   POMASS =  28.09
  Ionic Valenz
   ZVAL   =   4.00
  Atomic Wigner-Seitz radii
   RWIGS  =  -1.00
  virtual crystal weights 
   VCA    =   1.00
   NELECT =      32.0000    total number of electrons
   NUPDOWN=      -1.0000    fix difference up-down

 DOS related values:
   EMIN   =  10.00;   EMAX   =-10.00  energy-range for DOS
   EFERMI =   0.00
   ISMEAR =     0;   SIGMA  =   0.02  broadening in eV -4-tet -1-fermi 0-gaus

 Electronic relaxation 2 (details)
   IALGO  =     68    algorithm
   LDIAG  =      T    sub-space diagonalisation (order eigenvalues)
   LSUBROT=      T    optimize rotation matrix (better conditioning)
   TURBO    =      0    0=normal 1=particle mesh
   IRESTART =      0    0=no restart 2=restart with 2 vectors
   NREBOOT  =      0    no. of reboots
   NMIN     =      0    reboot dimension
   EREF     =   0.00    reference energy to select bands
   IMIX   =      4    mixing-type and parameters
     AMIX     =   0.40;   BMIX     =  1.00
     AMIX_MAG =   1.60;   BMIX_MAG =  1.00
     AMIN     =   0.10
     WC   =   100.;   INIMIX=   1;  MIXPRE=   1;  MAXMIX= -45

 Intra band minimization:
   WEIMIN = 0.0000     energy-eigenvalue tresh-hold
   EBREAK =  0.52E-10  absolut break condition
   DEPER  =   0.30     relativ break condition  

   TIME   =   0.40     timestep for ELM

  volume/ion in A,a.u.               =      20.46       138.06
  Fermi-wavevector in a.u.,A,eV,Ry     =   0.950176  1.795573 12.283814  0.902835
  Thomas-Fermi vector in A             =   2.078528
 
 Write flags
   LWAVE  =      F    write WAVECAR
   LCHARG =      F    write CHGCAR
   LVTOT  =      F    write LOCPOT, total local potential
   LVHAR  =      F    write LOCPOT, Hartree potential only
   LELF   =      F    write electronic localiz. function (ELF)
   LORBIT =      0    0 simple, 1 ext, 2 COOP (PROOUT)


 Dipole corrections
   LMONO  =      F    monopole corrections only (constant potential shift)
   LDIPOL =      F    correct potential (dipole corrections)
   IDIPOL =      0    1-x, 2-y, 3-z, 4-all directions 
   EPSILON=  1.0000000 bulk dielectric constant

 Exchange correlation treatment:
   GGA     =    --    GGA type
   LEXCH   =     7    internal setting for exchange type
   VOSKOWN=      0    Vosko Wilk Nusair interpolation
   LHFCALC =     F    Hartree Fock is set to
   LHFONE  =     F    Hartree Fock one center treatment
   AEXX    =    0.0000 exact exchange contribution

 Linear response parameters
   LEPSILON=     T    determine dielectric tensor
   LRPA    =     F    only Hartree local field effects (RPA)
   LNABLA  =     F    use nabla operator in PAW spheres
   LVEL    =     F    velocity operator in full k-point grid
   LINTERFAST=   F  fast interpolation
   KINTER  =     0    interpolate to denser k-point grid
   CSHIFT  =0.1000    complex shift for real part using Kramers Kronig
   OMEGAMAX=  -1.0    maximum frequency
   DEG_THRESHOLD= 0.2000000E-02 threshold for treating states as degnerate
   RTIME   =    0.100 relaxation time in fs

 Orbital magnetization related:
   ORBITALMAG=     F  switch on orbital magnetization
   LCHIMAG   =     F  perturbation theory with respect to B field
   DQ        =  0.001000  dq finite difference perturbation B field



--------------------------------------------------------------------------------------------------------


 Static calculation
 charge density and potential will be updated during run
 non-spin polarized calculation
 RMM-DIIS sequential band-by-band and
  variant of blocked Davidson during initial phase
 perform sub-space diagonalisation
    before iterative eigenvector-optimisation
 modified Broyden-mixing scheme, WC =      100.0
 initial mixing is a Kerker type mixing with AMIX =  0.4000 and BMIX =      1.0000
 Hartree-type preconditioning will be used
 using additional bands           32
 reciprocal scheme for non local part
 use partial core corrections
 calculate Harris-corrections to forces 
   (improved forces if not selfconsistent)
 use gradient corrections 
 use of overlap-Matrix (Vanderbilt PP)
 Gauss-broadening in eV      SIGMA  =   0.02


--------------------------------------------------------------------------------------------------------


  energy-cutoff  :      200.00
  volume of cell :      163.67
      direct lattice vectors                 reciprocal lattice vectors
     5.470000000  0.000000000  0.000000000     0.182815356  0.000000000  0.000000000
     0.000000000  5.470000000  0.000000000     0.000000000  0.182815356  0.000000000
     0.000000000  0.000000000  5.470000000     0.000000000  0.000000000  0.182815356

  length of vectors
     5.470000000  5.470000000  5.470000000     0.182815356  0.182815356  0.182815356


 
 k-points in units of 2pi/SCALE and weight: Automatic mesh                          
   0.00000000  0.00000000  0.00000000       1.000
 
 k-points in reciprocal lattice and weights: Automatic mesh                          
   0.00000000  0.00000000  0.00000000       1.000
 
 position of ions in fractional coordinates (direct lattice) 
   0.99956929  0.00066273  0.00028548
   0.25066273  0.25028548  0.25034977
   0.50028548  0.50034977  0.99983122
   0.75034977  0.74983122  0.25015030
   0.49983122  0.00015030  0.50014223
   0.75015030  0.25014223  0.75001441
   0.00014223  0.50001441  0.50064716
   0.25001441  0.75064716  0.75078392
 
 position of ions in cartesian coordinates  (Angst):
   5.46764402  0.00362515  0.00156159
   1.37112515  1.36906159  1.36941325
   2.73656159  2.73691325  5.46907677
   4.10441325  4.10157677  1.36832215
   2.73407677  0.00082215  2.73577797
   4.10332215  1.36827797  4.10257880
   0.00077797  2.73507880  2.73853994
   1.36757880  4.10603994  4.10678802
 


--------------------------------------------------------------------------------------------------------


 k-point  1 :   0.0000 0.0000 0.0000  plane waves:    1021

 maximum and minimum number of plane-waves per node :      1021     1021

 maximum number of plane-waves:      1021
 maximum index in each direction: 
   IXMAX=    6   IYMAX=    6   IZMAX=    6
   IXMIN=   -6   IYMIN=   -6   IZMIN=   -6

 NGX is ok and might be reduce to  26
 NGY is ok and might be reduce to  26
 NGZ is ok and might be reduce to  26

 serial   3D FFT for wavefunctions
 parallel 3D FFT for charge:
    minimum data exchange during FFTs selected (reduces bandwidth)


 total amount of memory used by VASP on root node    32224. kBytes
========================================================================

   base      :      30000. kBytes
   nonl-proj :        202. kBytes
   fftplans  :        782. kBytes
   grid      :       1198. kBytes
   one-center:         24. kBytes
   wavefun   :         18. kBytes
 
 Broyden mixing: mesh for mixing (old mesh)
   NGX = 13   NGY = 13   NGZ = 13
  (NGX  = 56   NGY  = 56   NGZ  = 56)
  gives a total of   2197 points

 initial charge density was supplied:
 charge density of overlapping atoms calculated
 number of electron      32.0000000 magnetization 
 keeping initial charge density in first step


--------------------------------------------------------------------------------------------------------


 Maximum index for augmentation-charges         1787 (set IRDMAX)


--------------------------------------------------------------------------------------------------------


 First call to EWALD:  gamma=   0.324
 Maximum number of real-space cells 3x 3x 3
 Maximum number of reciprocal cells 3x 3x 3

 FEWALD executed in parallel
    FEWALD:  cpu time    0.00: real time    0.00


----------------------------------------- Iteration    1(   1)  ---------------------------------------


    POTLOK:  cpu time    0.03: real time    0.03
    SETDIJ:  cpu time    0.02: real time    0.02
     EDDAV:  cpu time    0.39: real time    0.40
       DOS:  cpu time    0.00: real time    0.00
    --------------------------------------------
      LOOP:  cpu time    0.44: real time    0.46

 eigenvalue-minimisations  :    96
 total energy-change (2. order) :-0.1014202E+02  (-0.7956067E+03)
 number of electron      32.0000000 magnetization 
 augmentation part       32.0000000 magnetization 

 Free energy of the ion-electron system (eV)
  ---------------------------------------------------
  alpha Z        PSCENC =        12.68944982
  Ewald energy   TEWEN  =      -907.56838562
  -1/2 Hartree   DENC   =       -45.63554653
  -exchange  EXHF       =         0.00000000
  -V(xc)+E(xc)   XCENC  =       -76.79674213
  PAW double counting   =       265.93453375     -123.69690146
  entropy T*S    EENTRO =        -0.00015554
  eigenvalues    EBANDS =        38.55774996
  atomic energy  EATOM  =       826.37398168
  ---------------------------------------------------
  free energy    TOTEN  =       -10.14201607 eV

  energy without entropy =      -10.14186053  energy(sigma->0) =      -10.14193830


--------------------------------------------------------------------------------------------------------




 average (electrostatic) potential at core
  the test charge radii are     0.9892
  (the norm of the test charge is              1.0000)
       1 -84.3510       2 -84.3490       3 -84.3517       4 -84.3488       5 -84.3504
       6 -84.3545       7 -84.3493       8 -84.3501
 
 
 
 E-fermi :   6.6074     XC(G=0):  -9.5533     alpha+bet :-11.7379


 k-point   1 :       0.0000    0.0000    0.0000
  band No.  band energies     occupation 
      1      -6.5895      2.00000
      2      -2.4145      2.00000
      3      -2.2482      2.00000
      4      -2.1172      2.00000
      5      -2.0317      2.00000
      6      -1.8724      2.00000
      7      -1.6830      2.00000
      8       2.7427      2.00000
      9       2.8490      2.00000
     10       2.9935      2.00000
     11       3.1604      2.00000
     12       3.3438      2.00000
     13       4.0803      2.00000
     14       6.1404      2.00000
     15       6.3624      2.00000
     16       6.5628      1.99840
     17       6.6520      0.00160
     18       6.8049      0.00000
     19       6.9031      0.00000
     20       7.1742      0.00000
     21       7.3805      0.00000
     22       8.0427      0.00000
     23       8.9832      0.00000
     24       9.3757      0.00000
     25      10.4543      0.00000
     26      11.4533      0.00000
     27      13.5072      0.00000
     28      14.7746      0.00000
     29      16.5572      0.00000
     30      16.8956      0.00000
     31      17.3585      0.00000
     32      17.5850      0.00000
     33      17.9332      0.00000
     34      18.1268      0.00000
     35      18.4997      0.00000
     36      18.8771      0.00000
     37      19.3729      0.00000
     38      19.5137      0.00000
     39      19.8633      0.00000
     40      20.2522      0.00000
     41      21.0983      0.00000
     42      21.6829      0.00000
     43      22.1774      0.00000
     44      22.7627      0.00000
     45      23.8997      0.00000
     46      24.4033      0.00000
     47      24.8193      0.00000
     48      25.8326      0.00000


--------------------------------------------------------------------------------------------------------


 soft charge-density along one line, spin component           1
         0         1         2         3         4         5         6         7         8         9
 total charge-density along one line
 
 pseudopotential strength for first ion, spin component:           1
 18.662   0.000   0.000   0.000   0.000   0.000   0.000   0.000
  0.000   0.006   0.000   0.000   0.000   0.000   0.000   0.000
  0.000   0.000   4.216   0.000   0.000  -0.004   0.000   0.000
  0.000   0.000   0.000   4.216   0.000   0.000  -0.004   0.000
  0.000   0.000   0.000   0.000   4.216   0.000   0.000  -0.004
  0.000   0.000  -0.004   0.000   0.000   0.005   0.000   0.000
  0.000   0.000   0.000  -0.004   0.000   0.000   0.005   0.000
  0.000   0.000   0.000   0.000  -0.004   0.000   0.000   0.005
 total augmentation occupancy for first ion, spin component:           1
  2.000   0.000   0.000   0.000   0.000   0.000   0.000   0.000
  0.000   0.000   0.000   0.000   0.000   0.000   0.000   0.000
  0.000   0.000   0.667   0.000   0.000   0.000   0.000   0.000
  0.000   0.000   0.000   0.667   0.000   0.000   0.000   0.000
  0.000   0.000   0.000   0.000   0.667   0.000   0.000   0.000
  0.000   0.000   0.000   0.000   0.000   0.000   0.000   0.000
  0.000   0.000   0.000   0.000   0.000   0.000   0.000   0.000
  0.000   0.000   0.000   0.000   0.000   0.000   0.000   0.000


----------------------------------------- Iteration    1(   2)  ---------------------------------------


     EDDAV:  cpu time    0.96: real time    0.97
       DOS:  cpu time    0.00: real time    0.00
    --------------------------------------------
      LOOP:  cpu time    0.97: real time    0.97

 eigenvalue-minimisations  :   144
 total energy-change (2. order) :-0.2430879E+02  (-0.2430726E+02)
 number of electron      32.0000000 magnetization 
 augmentation part       32.0000000 magnetization 

 Free energy of the ion-electron system (eV)
  ---------------------------------------------------
  alpha Z        PSCENC =        12.68944982
  Ewald energy   TEWEN  =      -907.56838562
  -1/2 Hartree   DENC   =       -45.63554653
  -exchange  EXHF       =         0.00000000
  -V(xc)+E(xc)   XCENC  =       -76.79674213
  PAW double counting   =       265.93453375     -123.69690146
  entropy T*S    EENTRO =         0.00000000
  eigenvalues    EBANDS =        14.24880131
  atomic energy  EATOM  =       826.37398168
  ---------------------------------------------------
  free energy    TOTEN  =       -34.45080918 eV

  energy without entropy =      -34.45080918  energy(sigma->0) =      -34.45080918


--------------------------------------------------------------------------------------------------------




 average (electrostatic) potential at core
  the test charge radii are     0.9892
  (the norm of the test charge is              1.0000)
       1 -84.3510       2 -84.3490       3 -84.3517       4 -84.3488       5 -84.3504
       6 -84.3545       7 -84.3493       8 -84.3501
 
 
 
 E-fermi :   5.2517     XC(G=0):  -9.5533     alpha+bet :-11.7379


 k-point   1 :       0.0000    0.0000    0.0000
  band No.  band energies     occupation 
      1      -6.6371      2.00000
      2      -2.6383      2.00000
      3      -2.6346      2.00000
      4      -2.6307      2.00000
      5      -2.6272      2.00000
      6      -2.6250      2.00000
      7      -2.6191      2.00000
      8       2.3766      2.00000
      9       2.3777      2.00000
     10       2.3799      2.00000
     11       2.3818      2.00000
     12       2.3854      2.00000
     13       2.3947      2.00000
     14       5.0645      2.00000
     15       5.0815      2.00000
     16       5.0942      2.00000
     17       6.1493      0.00000
     18       6.1526      0.00000
     19       6.1544      0.00000
     20       6.1561      0.00000
     21       6.1603      0.00000
     22       6.1670      0.00000
     23       7.8496      0.00000
     24       7.8569      0.00000
     25       7.8650      0.00000
     26       8.1266      0.00000
     27      13.2005      0.00000
     28      13.2626      0.00000
     29      13.2698      0.00000
     30      15.0999      0.00000
     31      15.1329      0.00000
     32      15.1708      0.00000
     33      15.2489      0.00000
     34      15.3149      0.00000
     35      15.6366      0.00000
     36      16.3782      0.00000
     37      16.4260      0.00000
     38      16.4535      0.00000
     39      16.5352      0.00000
     40      16.7216      0.00000
     41      16.7463      0.00000
     42      16.7696      0.00000
     43      16.8655      0.00000
     44      17.2290      0.00000
     45      17.9148      0.00000
     46      17.9468      0.00000
     47      17.9885      0.00000
     48      18.0221      0.00000


--------------------------------------------------------------------------------------------------------


 soft charge-density along one line, spin component           1
         0         1         2         3         4         5         6         7         8         9
 total charge-density along one line
 
 pseudopotential strength for first ion, spin component:           1
 18.662   0.000   0.000   0.000   0.000   0.000   0.000   0.000
  0.000   0.006   0.000   0.000   0.000   0.000   0.000   0.000
  0.000   0.000   4.216   0.000   0.000  -0.004   0.000   0.000
  0.000   0.000   0.000   4.216   0.000   0.000  -0.004   0.000
  0.000   0.000   0.000   0.000   4.216   0.000   0.000  -0.004
  0.000   0.000  -0.004   0.000   0.000   0.005   0.000   0.000
  0.000   0.000   0.000  -0.004   0.000   0.000   0.005   0.000
  0.000   0.000   0.000   0.000  -0.004   0.000   0.000   0.005
 total augmentation occupancy for first ion, spin component:           1
  2.000   0.000   0.000   0.000   0.000   0.000   0.000   0.000
  0.000   0.000   0.000   0.000   0.000   0.000   0.000   0.000
  0.000   0.000   0.667   0.000   0.000   0.000   0.000   0.000
  0.000   0.000   0.000   0.667   0.000   0.000   0.000   0.000
  0.000   0.000   0.000   0.000   0.667   0.000   0.000   0.000
  0.000   0.000   0.000   0.000   0.000   0.000   0.000   0.000
  0.000   0.000   0.000   0.000   0.000   0.000   0.000   0.000
  0.000   0.000   0.000   0.000   0.000   0.000   0.000   0.000


----------------------------------------- Iteration    1(   3)  ---------------------------------------


     EDDAV:  cpu time    0.39: real time    0.39
       DOS:  cpu time    0.00: real time    0.00
    --------------------------------------------
      LOOP:  cpu time    0.39: real time    0.40

 eigenvalue-minimisations  :    96
 total energy-change (2. order) :-0.1670659E+00  (-0.1670659E+00)
 number of electron      32.0000000 magnetization 
 augmentation part       32.0000000 magnetization 

 Free energy of the ion-electron system (eV)
  ---------------------------------------------------
  alpha Z        PSCENC =        12.68944982
  Ewald energy   TEWEN  =      -907.56838562
  -1/2 Hartree   DENC   =       -45.63554653
  -exchange  EXHF       =         0.00000000
  -V(xc)+E(xc)   XCENC  =       -76.79674213
  PAW double counting   =       265.93453375     -123.69690146
  entropy T*S    EENTRO =         0.00000000
  eigenvalues    EBANDS =        14.08173545
  atomic energy  EATOM  =       826.37398168
  ---------------------------------------------------
  free energy    TOTEN  =       -34.61787504 eV

  energy without entropy =      -34.61787504  energy(sigma->0) =      -34.61787504


--------------------------------------------------------------------------------------------------------




 average (electrostatic) potential at core
  the test charge radii are     0.9892
  (the norm of the test charge is              1.0000)
       1 -84.3510       2 -84.3490       3 -84.3517       4 -84.3488       5 -84.3504
       6 -84.3545       7 -84.3493       8 -84.3501
 
 
 
 E-fermi :   5.2229     XC(G=0):  -9.5533     alpha+bet :-11.7379


 k-point   1 :       0.0000    0.0000    0.0000
  band No.  band energies     occupation 
      1      -6.6371      2.00000
      2      -2.6410      2.00000
      3      -2.6369      2.00000
      4      -2.6326      2.00000
      5      -2.6296      2.00000
      6      -2.6270      2.00000
      7      -2.6210      2.00000
      8       2.3727      2.00000
      9       2.3756      2.00000
     10       2.3766      2.00000
     11       2.3784      2.00000
     12       2.3803      2.00000
     13       2.3825      2.00000
     14       5.0560      2.00000
     15       5.0677      2.00000
     16       5.0763      2.00000
     17       6.1462      0.00000
     18       6.1505      0.00000
     19       6.1521      0.00000
     20       6.1531      0.00000
     21       6.1564      0.00000
     22       6.1611      0.00000
     23       7.8441      0.00000
     24       7.8489      0.00000
     25       7.8555      0.00000
     26       8.1178      0.00000
     27      13.1845      0.00000
     28      13.1868      0.00000
     29      13.2693      0.00000
     30      15.0845      0.00000
     31      15.0868      0.00000
     32      15.0946      0.00000
     33      15.1110      0.00000
     34      15.1288      0.00000
     35      15.1812      0.00000
     36      16.3159      0.00000
     37      16.3329      0.00000
     38      16.3425      0.00000
     39      16.3641      0.00000
     40      16.4280      0.00000
     41      16.4896      0.00000
     42      16.7123      0.00000
     43      16.7179      0.00000
     44      16.8150      0.00000
     45      17.8823      0.00000
     46      17.8922      0.00000
     47      17.9177      0.00000
     48      17.9390      0.00000


--------------------------------------------------------------------------------------------------------


 soft charge-density along one line, spin component           1
         0         1         2         3         4         5         6         7         8         9
 total charge-density along one line
 
 pseudopotential strength for first ion, spin component:           1
 18.662   0.000   0.000   0.000   0.000   0.000   0.000   0.000
  0.000   0.006   0.000   0.000   0.000   0.000   0.000   0.000
  0.000   0.000   4.216   0.000   0.000  -0.004   0.000   0.000
  0.000   0.000   0.000   4.216   0.000   0.000  -0.004   0.000
  0.000   0.000   0.000   0.000   4.216   0.000   0.000  -0.004
  0.000   0.000  -0.004   0.000   0.000   0.005   0.000   0.000
  0.000   0.000   0.000  -0.004   0.000   0.000   0.005   0.000
  0.000   0.000   0.000   0.000  -0.004   0.000   0.000   0.005
 total augmentation occupancy for first ion, spin component:           1
  2.000   0.000   0.000   0.000   0.000   0.000   0.000   0.000
  0.000   0.000   0.000   0.000   0.000   0.000   0.000   0.000
  0.000   0.000   0.667   0.000   0.000   0.000   0.000   0.000
  0.000   0.000   0.000   0.667   0.000   0.000   0.000   0.000
  0.000   0.000   0.000   0.000   0.667   0.000   0.000   0.000
  0.000   0.000   0.000   0.000   0.000   0.000   0.000   0.000
  0.000   0.000   0.000   0.000   0.000   0.000   0.000   0.000
  0.000   0.000   0.000   0.000   0.000   0.000   0.000   0.000


----------------------------------------- Iteration    1(   4)  ---------------------------------------


     EDDAV:  cpu time    1.98: real time    1.98
       DOS:  cpu time    0.00: real time    0.00
    --------------------------------------------
      LOOP:  cpu time    1.99: real time    1.99

 eigenvalue-minimisations  :   192
 total energy-change (2. order) :-0.3541834E-03  (-0.3541834E-03)
 number of electron      32.0000000 magnetization 
 augmentation part       32.0000000 magnetization 

 Free energy of the ion-electron system (eV)
  ---------------------------------------------------
  alpha Z        PSCENC =        12.68944982
  Ewald energy   TEWEN  =      -907.56838562
  -1/2 Hartree   DENC   =       -45.63554653
  -exchange  EXHF       =         0.00000000
  -V(xc)+E(xc)   XCENC  =       -76.79674213
  PAW double counting   =       265.93453375     -123.69690146
  entropy T*S    EENTRO =         0.00000000
  eigenvalues    EBANDS =        14.08138126
  atomic energy  EATOM  =       826.37398168
  ---------------------------------------------------
  free energy    TOTEN  =       -34.61822923 eV

  energy without entropy =      -34.61822923  energy(sigma->0) =      -34.61822923


--------------------------------------------------------------------------------------------------------




 average (electrostatic) potential at core
  the test charge radii are     0.9892
  (the norm of the test charge is              1.0000)
       1 -84.3510       2 -84.3490       3 -84.3517       4 -84.3488       5 -84.3504
       6 -84.3545       7 -84.3493       8 -84.3501
 
 
 
 E-fermi :   5.2008     XC(G=0):  -9.5533     alpha+bet :-11.7379


 k-point   1 :       0.0000    0.0000    0.0000
  band No.  band energies     occupation 
      1      -6.6371      2.00000
      2      -2.6410      2.00000
      3      -2.6369      2.00000
      4      -2.6326      2.00000
      5      -2.6296      2.00000
      6      -2.6270      2.00000
      7      -2.6210      2.00000
      8       2.3727      2.00000
      9       2.3756      2.00000
     10       2.3766      2.00000
     11       2.3784      2.00000
     12       2.3803      2.00000
     13       2.3825      2.00000
     14       5.0560      2.00000
     15       5.0676      2.00000
     16       5.0762      2.00000
     17       6.1462      0.00000
     18       6.1505      0.00000
     19       6.1521      0.00000
     20       6.1531      0.00000
     21       6.1564      0.00000
     22       6.1611      0.00000
     23       7.8441      0.00000
     24       7.8489      0.00000
     25       7.8554      0.00000
     26       8.1178      0.00000
     27      13.1838      0.00000
     28      13.1838      0.00000
     29      13.2692      0.00000
     30      15.0805      0.00000
     31      15.0814      0.00000
     32      15.0830      0.00000
     33      15.0861      0.00000
     34      15.0876      0.00000
     35      15.0903      0.00000
     36      16.3037      0.00000
     37      16.3052      0.00000
     38      16.3066      0.00000
     39      16.3128      0.00000
     40      16.3171      0.00000
     41      16.3175      0.00000
     42      16.6984      0.00000
     43      16.7037      0.00000
     44      16.7108      0.00000
     45      17.8723      0.00000
     46      17.8805      0.00000
     47      17.8863      0.00000
     48      17.8932      0.00000


--------------------------------------------------------------------------------------------------------


 soft charge-density along one line, spin component           1
         0         1         2         3         4         5         6         7         8         9
 total charge-density along one line
 
 pseudopotential strength for first ion, spin component:           1
 18.662   0.000   0.000   0.000   0.000   0.000   0.000   0.000
  0.000   0.006   0.000   0.000   0.000   0.000   0.000   0.000
  0.000   0.000   4.216   0.000   0.000  -0.004   0.000   0.000
  0.000   0.000   0.000   4.216   0.000   0.000  -0.004   0.000
  0.000   0.000   0.000   0.000   4.216   0.000   0.000  -0.004
  0.000   0.000  -0.004   0.000   0.000   0.005   0.000   0.000
  0.000   0.000   0.000  -0.004   0.000   0.000   0.005   0.000
  0.000   0.000   0.000   0.000  -0.004   0.000   0.000   0.005
 total augmentation occupancy for first ion, spin component:           1
  2.000   0.000   0.000   0.000   0.000   0.000   0.000   0.000
  0.000   0.000   0.000   0.000   0.000   0.000   0.000   0.000
  0.000   0.000   0.667   0.000   0.000   0.000   0.000   0.000
  0.000   0.000   0.000   0.667   0.000   0.000   0.000   0.000
  0.000   0.000   0.000   0.000   0.667   0.000   0.000   0.000
  0.000   0.000   0.000   0.000   0.000   0.000   0.000   0.000
  0.000   0.000   0.000   0.000   0.000   0.000   0.000   0.000
  0.000   0.000   0.000   0.000   0.000   0.000   0.000   0.000


----------------------------------------- Iteration    1(   5)  ---------------------------------------


     EDDAV:  cpu time    0.38: real time    0.38
       DOS:  cpu time    0.00: real time    0.00
    CHARGE:  cpu time    0.02: real time    0.02
    MIXING:  cpu time    0.00: real time    0.00
    --------------------------------------------
      LOOP:  cpu time    0.41: real time    0.42

 eigenvalue-minimisations  :    96
 total energy-change (2. order) :-0.3054083E-08  (-0.3052655E-08)
 number of electron      31.9999999 magnetization 
 augmentation part       -1.8053297 magnetization 

 Broyden mixing:
  rms(total) = 0.79306E+00    rms(broyden)= 0.79301E+00
  rms(prec ) = 0.15229E+01
  weight for this iteration     100.00

 Free energy of the ion-electron system (eV)
  ---------------------------------------------------
  alpha Z        PSCENC =        12.68944982
  Ewald energy   TEWEN  =      -907.56838562
  -1/2 Hartree   DENC   =       -45.63554653
  -exchange  EXHF       =         0.00000000
  -V(xc)+E(xc)   XCENC  =       -76.79674213
  PAW double counting   =       265.93453375     -123.69690146
  entropy T*S    EENTRO =         0.00000000
  eigenvalues    EBANDS =        14.08138126
  atomic energy  EATOM  =       826.37398168
  ---------------------------------------------------
  free energy    TOTEN  =       -34.61822923 eV

  energy without entropy =      -34.61822923  energy(sigma->0) =      -34.61822923


--------------------------------------------------------------------------------------------------------




 average (electrostatic) potential at core
  the test charge radii are     0.9892
  (the norm of the test charge is              1.0000)
       1 -84.3510       2 -84.3490       3 -84.3517       4 -84.3488       5 -84.3504
       6 -84.3545       7 -84.3493       8 -84.3501
 
 
 
 E-fermi :   5.1977     XC(G=0):  -9.5533     alpha+bet :-11.7379


 k-point   1 :       0.0000    0.0000    0.0000
  band No.  band energies     occupation 
      1      -6.6371      2.00000
      2      -2.6410      2.00000
      3      -2.6369      2.00000
      4      -2.6326      2.00000
      5      -2.6296      2.00000
      6      -2.6270      2.00000
      7      -2.6210      2.00000
      8       2.3727      2.00000
      9       2.3756      2.00000
     10       2.3766      2.00000
     11       2.3784      2.00000
     12       2.3803      2.00000
     13       2.3825      2.00000
     14       5.0560      2.00000
     15       5.0676      2.00000
     16       5.0762      2.00000
     17       6.1462      0.00000
     18       6.1505      0.00000
     19       6.1521      0.00000
     20       6.1531      0.00000
     21       6.1564      0.00000
     22       6.1611      0.00000
     23       7.8441      0.00000
     24       7.8489      0.00000
     25       7.8554      0.00000
     26       8.1178      0.00000
     27      13.1838      0.00000
     28      13.1838      0.00000
     29      13.2692      0.00000
     30      15.0804      0.00000
     31      15.0814      0.00000
     32      15.0829      0.00000
     33      15.0861      0.00000
     34      15.0876      0.00000
     35      15.0902      0.00000
     36      16.3035      0.00000
     37      16.3049      0.00000
     38      16.3062      0.00000
     39      16.3126      0.00000
     40      16.3168      0.00000
     41      16.3169      0.00000
     42      16.6982      0.00000
     43      16.7036      0.00000
     44      16.7108      0.00000
     45      17.8689      0.00000
     46      17.8764      0.00000
     47      17.8793      0.00000
     48      17.8867      0.00000


--------------------------------------------------------------------------------------------------------


 soft charge-density along one line, spin component           1
         0         1         2         3         4         5         6         7         8         9
 total charge-density along one line
 
 pseudopotential strength for first ion, spin component:           1
 18.662   0.000   0.000   0.000   0.000   0.000   0.000   0.000
  0.000   0.006   0.000   0.000   0.000   0.000   0.000   0.000
  0.000   0.000   4.216   0.000   0.000  -0.004   0.000   0.000
  0.000   0.000   0.000   4.216   0.000   0.000  -0.004   0.000
  0.000   0.000   0.000   0.000   4.216   0.000   0.000  -0.004
  0.000   0.000  -0.004   0.000   0.000   0.005   0.000   0.000
  0.000   0.000   0.000  -0.004   0.000   0.000   0.005   0.000
  0.000   0.000   0.000   0.000  -0.004   0.000   0.000   0.005
 total augmentation occupancy for first ion, spin component:           1
  1.380  -1.052   0.000  -0.001  -0.001   0.001   0.001   0.001
 -1.052   0.919   0.001   0.001   0.000  -0.001  -0.002   0.000
  0.000   0.001   1.165  -0.001  -0.001  -0.758   0.002   0.001
 -0.001   0.001  -0.001   1.164   0.000   0.002  -0.758   0.000
 -0.001   0.000  -0.001   0.000   1.165   0.001   0.000  -0.759
  0.001  -0.001  -0.758   0.002   0.001   0.570  -0.002  -0.001
  0.001  -0.002   0.002  -0.758   0.000  -0.002   0.569   0.000
  0.001   0.000   0.001   0.000  -0.759  -0.001   0.000   0.570


----------------------------------------- Iteration    1(   6)  ---------------------------------------


    POTLOK:  cpu time    0.02: real time    0.02
    SETDIJ:  cpu time    0.02: real time    0.02
    EDDIAG:  cpu time    0.03: real time    0.03
  RMM-DIIS:  cpu time    0.03: real time    0.03
    ORTHCH:  cpu time    0.01: real time    0.01
       DOS:  cpu time    0.00: real time    0.00
    CHARGE:  cpu time    0.02: real time    0.02
    MIXING:  cpu time    0.00: real time    0.00
    --------------------------------------------
      LOOP:  cpu time    0.13: real time    0.14

 eigenvalue-minimisations  :    96
 total energy-change (2. order) : 0.1001679E+01  (-0.3198564E-01)
 number of electron      31.9999999 magnetization 
 augmentation part       -1.7683984 magnetization 

 Broyden mixing:
  rms(total) = 0.47399E+00    rms(broyden)= 0.47399E+00
  rms(prec ) = 0.91066E+00
  weight for this iteration     100.00

 eigenvalues of (default mixing * dielectric matrix)
  average eigenvalue GAMMA=   2.4573
  2.4573

 Free energy of the ion-electron system (eV)
  ---------------------------------------------------
  alpha Z        PSCENC =        12.68944982
  Ewald energy   TEWEN  =      -907.56838562
  -1/2 Hartree   DENC   =       -54.68204603
  -exchange  EXHF       =         0.00000000
  -V(xc)+E(xc)   XCENC  =       -75.44943057
  PAW double counting   =       286.06044752     -144.35875031
  entropy T*S    EENTRO =         0.00000000
  eigenvalues    EBANDS =        23.31818331
  atomic energy  EATOM  =       826.37398168
  ---------------------------------------------------
  free energy    TOTEN  =       -33.61655020 eV

  energy without entropy =      -33.61655020  energy(sigma->0) =      -33.61655020


--------------------------------------------------------------------------------------------------------




 average (electrostatic) potential at core
  the test charge radii are     0.9892
  (the norm of the test charge is              1.0000)
       1 -83.8330       2 -83.8320       3 -83.8333       4 -83.8319       5 -83.8327
       6 -83.8347       7 -83.8322       8 -83.8326
 
 
 
 E-fermi :   5.5490     XC(G=0):  -9.4504     alpha+bet :-11.7379


 k-point   1 :       0.0000    0.0000    0.0000
  band No.  band energies     occupation 
      1      -6.3787      2.00000
      2      -2.3413      2.00000
      3      -2.3372      2.00000
      4      -2.3333      2.00000
      5      -2.3312      2.00000
      6      -2.3285      2.00000
      7      -2.3230      2.00000
      8       2.6342      2.00000
      9       2.6369      2.00000
     10       2.6378      2.00000
     11       2.6394      2.00000
     12       2.6410      2.00000
     13       2.6431      2.00000
     14       5.3896      2.00000
     15       5.4010      2.00000
     16       5.4094      2.00000
     17       6.2611      0.00000
     18       6.2653      0.00000
     19       6.2666      0.00000
     20       6.2675      0.00000
     21       6.2705      0.00000
     22       6.2749      0.00000
     23       8.0514      0.00000
     24       8.0563      0.00000
     25       8.0629      0.00000
     26       8.4862      0.00000
     27      13.3050      0.00000
     28      13.3569      0.00000
     29      13.3569      0.00000
     30      15.3768      0.00000
     31      15.3777      0.00000
     32      15.3793      0.00000
     33      15.3822      0.00000
     34      15.3836      0.00000
     35      15.3859      0.00000
     36      16.5400      0.00000
     37      16.5413      0.00000
     38      16.5424      0.00000
     39      16.5483      0.00000
     40      16.5520      0.00000
     41      16.5522      0.00000
     42      16.7427      0.00000
     43      16.7481      0.00000
     44      16.7554      0.00000
     45      18.1578      0.00000
     46      18.1649      0.00000
     47      18.1686      0.00000
     48      18.1745      0.00000


--------------------------------------------------------------------------------------------------------


 soft charge-density along one line, spin component           1
         0         1         2         3         4         5         6         7         8         9
 total charge-density along one line
 
 pseudopotential strength for first ion, spin component:           1
 18.635  -0.001   0.000   0.000   0.000   0.000   0.000   0.000
 -0.001   0.006   0.000   0.000   0.000   0.000   0.000   0.000
  0.000   0.000   4.221   0.000   0.000  -0.004   0.000   0.000
  0.000   0.000   0.000   4.221   0.000   0.000  -0.004   0.000
  0.000   0.000   0.000   0.000   4.221   0.000   0.000  -0.004
  0.000   0.000  -0.004   0.000   0.000   0.005   0.000   0.000
  0.000   0.000   0.000  -0.004   0.000   0.000   0.005   0.000
  0.000   0.000   0.000   0.000  -0.004   0.000   0.000   0.005
 total augmentation occupancy for first ion, spin component:           1
  1.351  -1.090   0.000  -0.001  -0.001   0.001   0.002   0.001
 -1.090   0.997   0.001   0.000   0.000  -0.001  -0.002  -0.001
  0.000   0.001   1.147  -0.001  -0.001  -0.782   0.002   0.001
 -0.001   0.000  -0.001   1.146   0.000   0.002  -0.781   0.000
 -0.001   0.000  -0.001   0.000   1.147   0.001   0.000  -0.782
  0.001  -0.001  -0.782   0.002   0.001   0.608  -0.002  -0.001
  0.002  -0.002   0.002  -0.781   0.000  -0.002   0.607   0.001
  0.001  -0.001   0.001   0.000  -0.782  -0.001   0.001   0.608


----------------------------------------- Iteration    1(   7)  ---------------------------------------


    POTLOK:  cpu time    0.02: real time    0.02
    SETDIJ:  cpu time    0.02: real time    0.02
    EDDIAG:  cpu time    0.02: real time    0.02
  RMM-DIIS:  cpu time    0.02: real time    0.02
    ORTHCH:  cpu time    0.01: real time    0.01
       DOS:  cpu time    0.00: real time    0.00
    CHARGE:  cpu time    0.02: real time    0.02
    MIXING:  cpu time    0.00: real time    0.00
    --------------------------------------------
      LOOP:  cpu time    0.11: real time    0.12

 eigenvalue-minimisations  :    96
 total energy-change (2. order) : 0.4246416E+00  (-0.7389305E-01)
 number of electron      31.9999999 magnetization 
 augmentation part       -1.7214418 magnetization 

 Broyden mixing:
  rms(total) = 0.46258E-01    rms(broyden)= 0.46248E-01
  rms(prec ) = 0.78465E-01
  weight for this iteration     100.00

 eigenvalues of (default mixing * dielectric matrix)
  average eigenvalue GAMMA=   2.5305
  2.5305  2.5305

 Free energy of the ion-electron system (eV)
  ---------------------------------------------------
  alpha Z        PSCENC =        12.68944982
  Ewald energy   TEWEN  =      -907.56838562
  -1/2 Hartree   DENC   =       -70.51304293
  -exchange  EXHF       =         0.00000000
  -V(xc)+E(xc)   XCENC  =       -73.00926801
  PAW double counting   =       313.72401905     -172.73601763
  entropy T*S    EENTRO =         0.00000000
  eigenvalues    EBANDS =        37.84735506
  atomic energy  EATOM  =       826.37398168
  ---------------------------------------------------
  free energy    TOTEN  =       -33.19190859 eV

  energy without entropy =      -33.19190859  energy(sigma->0) =      -33.19190859


--------------------------------------------------------------------------------------------------------




 average (electrostatic) potential at core
  the test charge radii are     0.9892
  (the norm of the test charge is              1.0000)
       1 -83.1452       2 -83.1449       3 -83.1458       4 -83.1453       5 -83.1452
       6 -83.1471       7 -83.1450       8 -83.1458
 
 
 
 E-fermi :   6.0962     XC(G=0):  -9.2018     alpha+bet :-11.7379


 k-point   1 :       0.0000    0.0000    0.0000
  band No.  band energies     occupation 
      1      -5.9621      2.00000
      2      -1.8743      2.00000
      3      -1.8701      2.00000
      4      -1.8666      2.00000
      5      -1.8652      2.00000
      6      -1.8624      2.00000
      7      -1.8574      2.00000
      8       3.0473      2.00000
      9       3.0498      2.00000
     10       3.0503      2.00000
     11       3.0519      2.00000
     12       3.0533      2.00000
     13       3.0553      2.00000
     14       5.9145      2.00000
     15       5.9256      2.00000
     16       5.9338      2.00000
     17       6.5198      0.00000
     18       6.5240      0.00000
     19       6.5251      0.00000
     20       6.5258      0.00000
     21       6.5287      0.00000
     22       6.5326      0.00000
     23       8.3764      0.00000
     24       8.3814      0.00000
     25       8.3882      0.00000
     26       9.0452      0.00000
     27      13.6013      0.00000
     28      13.6204      0.00000
     29      13.6204      0.00000
     30      15.8269      0.00000
     31      15.8280      0.00000
     32      15.8295      0.00000
     33      15.8320      0.00000
     34      15.8334      0.00000
     35      15.8355      0.00000
     36      16.8974      0.00000
     37      16.9029      0.00000
     38      16.9103      0.00000
     39      16.9597      0.00000
     40      16.9610      0.00000
     41      16.9620      0.00000
     42      16.9672      0.00000
     43      16.9705      0.00000
     44      16.9707      0.00000
     45      18.6537      0.00000
     46      18.6654      0.00000
     47      18.6692      0.00000
     48      18.6740      0.00000


--------------------------------------------------------------------------------------------------------


 soft charge-density along one line, spin component           1
         0         1         2         3         4         5         6         7         8         9
 total charge-density along one line
 
 pseudopotential strength for first ion, spin component:           1
 18.596  -0.001   0.000   0.000   0.000   0.000   0.000   0.000
 -0.001   0.006   0.000   0.000   0.000   0.000   0.000   0.000
  0.000   0.000   4.227   0.000   0.000  -0.005   0.000   0.000
  0.000   0.000   0.000   4.227   0.000   0.000  -0.005   0.000
  0.000   0.000   0.000   0.000   4.227   0.000   0.000  -0.005
  0.000   0.000  -0.005   0.000   0.000   0.005   0.000   0.000
  0.000   0.000   0.000  -0.005   0.000   0.000   0.005   0.000
  0.000   0.000   0.000   0.000  -0.005   0.000   0.000   0.005
 total augmentation occupancy for first ion, spin component:           1
  1.315  -1.112  -0.001  -0.002   0.000   0.001   0.002   0.001
 -1.112   1.058   0.000   0.000   0.001  -0.001  -0.002  -0.001
 -0.001   0.000   1.122   0.000  -0.001  -0.805   0.001   0.001
 -0.002   0.000   0.000   1.122  -0.001   0.001  -0.804   0.000
  0.000   0.001  -0.001  -0.001   1.122   0.001   0.000  -0.805
  0.001  -0.001  -0.805   0.001   0.001   0.652  -0.002  -0.001
  0.002  -0.002   0.001  -0.804   0.000  -0.002   0.651   0.001
  0.001  -0.001   0.001   0.000  -0.805  -0.001   0.001   0.652


----------------------------------------- Iteration    1(   8)  ---------------------------------------


    POTLOK:  cpu time    0.02: real time    0.02
    SETDIJ:  cpu time    0.02: real time    0.02
    EDDIAG:  cpu time    0.02: real time    0.02
  RMM-DIIS:  cpu time    0.02: real time    0.02
    ORTHCH:  cpu time    0.00: real time    0.01
       DOS:  cpu time    0.00: real time    0.00
    CHARGE:  cpu time    0.02: real time    0.02
    MIXING:  cpu time    0.00: real time    0.00
    --------------------------------------------
      LOOP:  cpu time    0.11: real time    0.11

 eigenvalue-minimisations  :    96
 total energy-change (2. order) :-0.3198484E-01  (-0.2164741E-02)
 number of electron      31.9999999 magnetization 
 augmentation part       -1.7275458 magnetization 

 Broyden mixing:
  rms(total) = 0.74896E-02    rms(broyden)= 0.74891E-02
  rms(prec ) = 0.17958E-01
  weight for this iteration     100.00

 eigenvalues of (default mixing * dielectric matrix)
  average eigenvalue GAMMA=   2.1194
  1.2685  2.8627  2.2268

 Free energy of the ion-electron system (eV)
  ---------------------------------------------------
  alpha Z        PSCENC =        12.68944982
  Ewald energy   TEWEN  =      -907.56838562
  -1/2 Hartree   DENC   =       -70.39710808
  -exchange  EXHF       =         0.00000000
  -V(xc)+E(xc)   XCENC  =       -72.96578227
  PAW double counting   =       307.35634620     -166.18338110
  entropy T*S    EENTRO =         0.00000000
  eigenvalues    EBANDS =        37.47098594
  atomic energy  EATOM  =       826.37398168
  ---------------------------------------------------
  free energy    TOTEN  =       -33.22389343 eV

  energy without entropy =      -33.22389343  energy(sigma->0) =      -33.22389343


--------------------------------------------------------------------------------------------------------




 average (electrostatic) potential at core
  the test charge radii are     0.9892
  (the norm of the test charge is              1.0000)
       1 -83.2487       2 -83.2473       3 -83.2494       4 -83.2473       5 -83.2484
       6 -83.2517       7 -83.2476       8 -83.2484
 
 
 
 E-fermi :   6.0351     XC(G=0):  -9.1504     alpha+bet :-11.7379


 k-point   1 :       0.0000    0.0000    0.0000
  band No.  band energies     occupation 
      1      -5.9632      2.00000
      2      -1.8863      2.00000
      3      -1.8821      2.00000
      4      -1.8783      2.00000
      5      -1.8766      2.00000
      6      -1.8737      2.00000
      7      -1.8685      2.00000
      8       3.0356      2.00000
      9       3.0381      2.00000
     10       3.0387      2.00000
     11       3.0405      2.00000
     12       3.0420      2.00000
     13       3.0439      2.00000
     14       5.8983      2.00000
     15       5.9095      2.00000
     16       5.9177      2.00000
     17       6.5704      0.00000
     18       6.5747      0.00000
     19       6.5760      0.00000
     20       6.5768      0.00000
     21       6.5798      0.00000
     22       6.5838      0.00000
     23       8.3658      0.00000
     24       8.3707      0.00000
     25       8.3774      0.00000
     26       9.0381      0.00000
     27      13.6064      0.00000
     28      13.6065      0.00000
     29      13.7784      0.00000
     30      15.8122      0.00000
     31      15.8132      0.00000
     32      15.8147      0.00000
     33      15.8172      0.00000
     34      15.8187      0.00000
     35      15.8211      0.00000
     36      16.9345      0.00000
     37      16.9399      0.00000
     38      16.9472      0.00000
     39      16.9659      0.00000
     40      16.9673      0.00000
     41      16.9683      0.00000
     42      16.9737      0.00000
     43      16.9772      0.00000
     44      16.9773      0.00000
     45      18.6896      0.00000
     46      18.7030      0.00000
     47      18.7070      0.00000
     48      18.7120      0.00000


--------------------------------------------------------------------------------------------------------


 soft charge-density along one line, spin component           1
         0         1         2         3         4         5         6         7         8         9
 total charge-density along one line
 
 pseudopotential strength for first ion, spin component:           1
 18.599  -0.001   0.000   0.000   0.000   0.000   0.000   0.000
 -0.001   0.006   0.000   0.000   0.000   0.000   0.000   0.000
  0.000   0.000   4.224   0.000   0.000  -0.005   0.000   0.000
  0.000   0.000   0.000   4.224   0.000   0.000  -0.005   0.000
  0.000   0.000   0.000   0.000   4.224   0.000   0.000  -0.005
  0.000   0.000  -0.005   0.000   0.000   0.005   0.000   0.000
  0.000   0.000   0.000  -0.005   0.000   0.000   0.005   0.000
  0.000   0.000   0.000   0.000  -0.005   0.000   0.000   0.005
 total augmentation occupancy for first ion, spin component:           1
  1.320  -1.092  -0.001  -0.002   0.000   0.001   0.002   0.001
 -1.092   1.021   0.000   0.000   0.001  -0.001  -0.002  -0.001
 -0.001   0.000   1.123   0.000  -0.001  -0.801   0.002   0.001
 -0.002   0.000   0.000   1.123  -0.001   0.001  -0.801   0.000
  0.000   0.001  -0.001  -0.001   1.124   0.001   0.000  -0.801
  0.001  -0.001  -0.801   0.001   0.001   0.647  -0.002  -0.001
  0.002  -0.002   0.002  -0.801   0.000  -0.002   0.647   0.000
  0.001  -0.001   0.001   0.000  -0.801  -0.001   0.000   0.647


----------------------------------------- Iteration    1(   9)  ---------------------------------------


    POTLOK:  cpu time    0.02: real time    0.02
    SETDIJ:  cpu time    0.02: real time    0.02
    EDDIAG:  cpu time    0.02: real time    0.02
  RMM-DIIS:  cpu time    0.04: real time    0.04
    ORTHCH:  cpu time    0.01: real time    0.01
       DOS:  cpu time    0.00: real time    0.00
    CHARGE:  cpu time    0.02: real time    0.02
    MIXING:  cpu time    0.00: real time    0.00
    --------------------------------------------
      LOOP:  cpu time    0.13: real time    0.13

 eigenvalue-minimisations  :   108
 total energy-change (2. order) :-0.1123273E-02  (-0.1257901E-03)
 number of electron      31.9999999 magnetization 
 augmentation part       -1.7274601 magnetization 

 Broyden mixing:
  rms(total) = 0.41706E-02    rms(broyden)= 0.41704E-02
  rms(prec ) = 0.68430E-02
  weight for this iteration     100.00

 eigenvalues of (default mixing * dielectric matrix)
  average eigenvalue GAMMA=   2.3229
  0.9916  3.3096  2.7058  2.2848

 Free energy of the ion-electron system (eV)
  ---------------------------------------------------
  alpha Z        PSCENC =        12.68944982
  Ewald energy   TEWEN  =      -907.56838562
  -1/2 Hartree   DENC   =       -70.79368345
  -exchange  EXHF       =         0.00000000
  -V(xc)+E(xc)   XCENC  =       -72.90660968
  PAW double counting   =       307.71257481     -166.55016679
  entropy T*S    EENTRO =         0.00000000
  eigenvalues    EBANDS =        37.81782254
  atomic energy  EATOM  =       826.37398168
  ---------------------------------------------------
  free energy    TOTEN  =       -33.22501670 eV

  energy without entropy =      -33.22501670  energy(sigma->0) =      -33.22501670


--------------------------------------------------------------------------------------------------------




 average (electrostatic) potential at core
  the test charge radii are     0.9892
  (the norm of the test charge is              1.0000)
       1 -83.2345       2 -83.2333       3 -83.2349       4 -83.2332       5 -83.2342
       6 -83.2364       7 -83.2336       8 -83.2339
 
 
 
 E-fermi :   6.0498     XC(G=0):  -9.1363     alpha+bet :-11.7379


 k-point   1 :       0.0000    0.0000    0.0000
  band No.  band energies     occupation 
      1      -5.9519      2.00000
      2      -1.8749      2.00000
      3      -1.8708      2.00000
      4      -1.8671      2.00000
      5      -1.8655      2.00000
      6      -1.8627      2.00000
      7      -1.8575      2.00000
      8       3.0455      2.00000
      9       3.0480      2.00000
     10       3.0486      2.00000
     11       3.0503      2.00000
     12       3.0517      2.00000
     13       3.0537      2.00000
     14       5.9104      2.00000
     15       5.9215      2.00000
     16       5.9297      2.00000
     17       6.5844      0.00000
     18       6.5887      0.00000
     19       6.5900      0.00000
     20       6.5908      0.00000
     21       6.5938      0.00000
     22       6.5978      0.00000
     23       8.3734      0.00000
     24       8.3784      0.00000
     25       8.3851      0.00000
     26       9.0526      0.00000
     27      13.6117      0.00000
     28      13.6117      0.00000
     29      13.8105      0.00000
     30      15.8228      0.00000
     31      15.8238      0.00000
     32      15.8253      0.00000
     33      15.8278      0.00000
     34      15.8292      0.00000
     35      15.8315      0.00000
     36      16.9445      0.00000
     37      16.9499      0.00000
     38      16.9572      0.00000
     39      16.9781      0.00000
     40      16.9795      0.00000
     41      16.9804      0.00000
     42      16.9858      0.00000
     43      16.9892      0.00000
     44      16.9893      0.00000
     45      18.7073      0.00000
     46      18.7211      0.00000
     47      18.7250      0.00000
     48      18.7303      0.00000


--------------------------------------------------------------------------------------------------------


 soft charge-density along one line, spin component           1
         0         1         2         3         4         5         6         7         8         9
 total charge-density along one line
 
 pseudopotential strength for first ion, spin component:           1
 18.598  -0.001   0.000   0.000   0.000   0.000   0.000   0.000
 -0.001   0.006   0.000   0.000   0.000   0.000   0.000   0.000
  0.000   0.000   4.224   0.000   0.000  -0.005   0.000   0.000
  0.000   0.000   0.000   4.224   0.000   0.000  -0.005   0.000
  0.000   0.000   0.000   0.000   4.224   0.000   0.000  -0.005
  0.000   0.000  -0.005   0.000   0.000   0.005   0.000   0.000
  0.000   0.000   0.000  -0.005   0.000   0.000   0.005   0.000
  0.000   0.000   0.000   0.000  -0.005   0.000   0.000   0.005
 total augmentation occupancy for first ion, spin component:           1
  1.320  -1.087  -0.001  -0.002   0.000   0.001   0.002   0.001
 -1.087   1.012   0.000   0.000   0.001  -0.001  -0.002  -0.001
 -0.001   0.000   1.123   0.000  -0.001  -0.801   0.002   0.001
 -0.002   0.000   0.000   1.122  -0.001   0.001  -0.800   0.000
  0.000   0.001  -0.001  -0.001   1.123   0.001   0.000  -0.801
  0.001  -0.001  -0.801   0.001   0.001   0.647  -0.002  -0.001
  0.002  -0.002   0.002  -0.800   0.000  -0.002   0.647   0.000
  0.001  -0.001   0.001   0.000  -0.801  -0.001   0.000   0.647


----------------------------------------- Iteration    1(  10)  ---------------------------------------


    POTLOK:  cpu time    0.03: real time    0.03
    SETDIJ:  cpu time    0.02: real time    0.02
    EDDIAG:  cpu time    0.02: real time    0.02
  RMM-DIIS:  cpu time    0.02: real time    0.02
    ORTHCH:  cpu time    0.01: real time    0.01
       DOS:  cpu time    0.00: real time    0.00
    CHARGE:  cpu time    0.02: real time    0.02
    MIXING:  cpu time    0.00: real time    0.00
    --------------------------------------------
      LOOP:  cpu time    0.12: real time    0.12

 eigenvalue-minimisations  :   104
 total energy-change (2. order) :-0.1851225E-03  (-0.2623386E-04)
 number of electron      31.9999999 magnetization 
 augmentation part       -1.7273196 magnetization 

 Broyden mixing:
  rms(total) = 0.59137E-03    rms(broyden)= 0.59102E-03
  rms(prec ) = 0.11146E-02
  weight for this iteration     100.00

 eigenvalues of (default mixing * dielectric matrix)
  average eigenvalue GAMMA=   2.0309
  3.0960  2.6263  2.1772  0.9770  1.2780

 Free energy of the ion-electron system (eV)
  ---------------------------------------------------
  alpha Z        PSCENC =        12.68944982
  Ewald energy   TEWEN  =      -907.56838562
  -1/2 Hartree   DENC   =       -70.84930569
  -exchange  EXHF       =         0.00000000
  -V(xc)+E(xc)   XCENC  =       -72.90970693
  PAW double counting   =       307.80931062     -166.65352284
  entropy T*S    EENTRO =         0.00000000
  eigenvalues    EBANDS =        37.88297714
  atomic energy  EATOM  =       826.37398168
  ---------------------------------------------------
  free energy    TOTEN  =       -33.22520183 eV

  energy without entropy =      -33.22520183  energy(sigma->0) =      -33.22520183


--------------------------------------------------------------------------------------------------------




 average (electrostatic) potential at core
  the test charge radii are     0.9892
  (the norm of the test charge is              1.0000)
       1 -83.2253       2 -83.2245       3 -83.2256       4 -83.2244       5 -83.2251
       6 -83.2267       7 -83.2247       8 -83.2250
 
 
 
 E-fermi :   6.0546     XC(G=0):  -9.1305     alpha+bet :-11.7379


 k-point   1 :       0.0000    0.0000    0.0000
  band No.  band energies     occupation 
      1      -5.9494      2.00000
      2      -1.8727      2.00000
      3      -1.8686      2.00000
      4      -1.8650      2.00000
      5      -1.8634      2.00000
      6      -1.8606      2.00000
      7      -1.8555      2.00000
      8       3.0473      2.00000
      9       3.0497      2.00000
     10       3.0504      2.00000
     11       3.0520      2.00000
     12       3.0534      2.00000
     13       3.0554      2.00000
     14       5.9127      2.00000
     15       5.9238      2.00000
     16       5.9319      2.00000
     17       6.5900      0.00000
     18       6.5942      0.00000
     19       6.5955      0.00000
     20       6.5963      0.00000
     21       6.5993      0.00000
     22       6.6033      0.00000
     23       8.3745      0.00000
     24       8.3794      0.00000
     25       8.3861      0.00000
     26       9.0564      0.00000
     27      13.6117      0.00000
     28      13.6117      0.00000
     29      13.8271      0.00000
     30      15.8247      0.00000
     31      15.8257      0.00000
     32      15.8272      0.00000
     33      15.8298      0.00000
     34      15.8312      0.00000
     35      15.8334      0.00000
     36      16.9487      0.00000
     37      16.9541      0.00000
     38      16.9613      0.00000
     39      16.9810      0.00000
     40      16.9823      0.00000
     41      16.9833      0.00000
     42      16.9886      0.00000
     43      16.9920      0.00000
     44      16.9921      0.00000
     45      18.7151      0.00000
     46      18.7285      0.00000
     47      18.7323      0.00000
     48      18.7375      0.00000


--------------------------------------------------------------------------------------------------------


 soft charge-density along one line, spin component           1
         0         1         2         3         4         5         6         7         8         9
 total charge-density along one line
 
 pseudopotential strength for first ion, spin component:           1
 18.597  -0.001   0.000   0.000   0.000   0.000   0.000   0.000
 -0.001   0.006   0.000   0.000   0.000   0.000   0.000   0.000
  0.000   0.000   4.224   0.000   0.000  -0.005   0.000   0.000
  0.000   0.000   0.000   4.224   0.000   0.000  -0.005   0.000
  0.000   0.000   0.000   0.000   4.224   0.000   0.000  -0.005
  0.000   0.000  -0.005   0.000   0.000   0.005   0.000   0.000
  0.000   0.000   0.000  -0.005   0.000   0.000   0.005   0.000
  0.000   0.000   0.000   0.000  -0.005   0.000   0.000   0.005
 total augmentation occupancy for first ion, spin component:           1
  1.320  -1.087  -0.001  -0.002   0.000   0.001   0.002   0.001
 -1.087   1.013   0.000   0.000   0.001  -0.001  -0.002  -0.001
 -0.001   0.000   1.123   0.000  -0.001  -0.801   0.002   0.001
 -0.002   0.000   0.000   1.122  -0.001   0.001  -0.801   0.000
  0.000   0.001  -0.001  -0.001   1.123   0.001   0.000  -0.801
  0.001  -0.001  -0.801   0.001   0.001   0.648  -0.002  -0.001
  0.002  -0.002   0.002  -0.801   0.000  -0.002   0.648   0.000
  0.001  -0.001   0.001   0.000  -0.801  -0.001   0.000   0.648


----------------------------------------- Iteration    1(  11)  ---------------------------------------


    POTLOK:  cpu time    0.02: real time    0.02
    SETDIJ:  cpu time    0.02: real time    0.02
    EDDIAG:  cpu time    0.02: real time    0.02
  RMM-DIIS:  cpu time    0.04: real time    0.04
    ORTHCH:  cpu time    0.01: real time    0.01
       DOS:  cpu time    0.00: real time    0.00
    CHARGE:  cpu time    0.02: real time    0.02
    MIXING:  cpu time    0.00: real time    0.00
    --------------------------------------------
      LOOP:  cpu time    0.13: real time    0.13

 eigenvalue-minimisations  :   113
 total energy-change (2. order) : 0.3803146E-05  (-0.4456312E-06)
 number of electron      31.9999999 magnetization 
 augmentation part       -1.7274316 magnetization 

 Broyden mixing:
  rms(total) = 0.14545E-03    rms(broyden)= 0.14540E-03
  rms(prec ) = 0.27341E-03
  weight for this iteration     100.00

 eigenvalues of (default mixing * dielectric matrix)
  average eigenvalue GAMMA=   2.0110
  3.2080  2.7053  2.1086  2.1086  0.9677  0.9677

 Free energy of the ion-electron system (eV)
  ---------------------------------------------------
  alpha Z        PSCENC =        12.68944982
  Ewald energy   TEWEN  =      -907.56838562
  -1/2 Hartree   DENC   =       -70.82762107
  -exchange  EXHF       =         0.00000000
  -V(xc)+E(xc)   XCENC  =       -72.91090247
  PAW double counting   =       307.73587428     -166.57711957
  entropy T*S    EENTRO =         0.00000000
  eigenvalues    EBANDS =        37.85952494
  atomic energy  EATOM  =       826.37398168
  ---------------------------------------------------
  free energy    TOTEN  =       -33.22519802 eV

  energy without entropy =      -33.22519802  energy(sigma->0) =      -33.22519802


--------------------------------------------------------------------------------------------------------




 average (electrostatic) potential at core
  the test charge radii are     0.9892
  (the norm of the test charge is              1.0000)
       1 -83.2279       2 -83.2269       3 -83.2282       4 -83.2267       5 -83.2276
       6 -83.2297       7 -83.2271       8 -83.2274
 
 
 
 E-fermi :   6.0541     XC(G=0):  -9.1314     alpha+bet :-11.7379


 k-point   1 :       0.0000    0.0000    0.0000
  band No.  band energies     occupation 
      1      -5.9501      2.00000
      2      -1.8735      2.00000
      3      -1.8694      2.00000
      4      -1.8657      2.00000
      5      -1.8641      2.00000
      6      -1.8613      2.00000
      7      -1.8562      2.00000
      8       3.0466      2.00000
      9       3.0491      2.00000
     10       3.0497      2.00000
     11       3.0514      2.00000
     12       3.0528      2.00000
     13       3.0548      2.00000
     14       5.9118      2.00000
     15       5.9229      2.00000
     16       5.9311      2.00000
     17       6.5891      0.00000
     18       6.5933      0.00000
     19       6.5946      0.00000
     20       6.5954      0.00000
     21       6.5984      0.00000
     22       6.6024      0.00000
     23       8.3740      0.00000
     24       8.3789      0.00000
     25       8.3856      0.00000
     26       9.0553      0.00000
     27      13.6115      0.00000
     28      13.6115      0.00000
     29      13.8249      0.00000
     30      15.8239      0.00000
     31      15.8249      0.00000
     32      15.8264      0.00000
     33      15.8290      0.00000
     34      15.8304      0.00000
     35      15.8327      0.00000
     36      16.9481      0.00000
     37      16.9535      0.00000
     38      16.9607      0.00000
     39      16.9802      0.00000
     40      16.9816      0.00000
     41      16.9825      0.00000
     42      16.9878      0.00000
     43      16.9913      0.00000
     44      16.9914      0.00000
     45      18.7165      0.00000
     46      18.7282      0.00000
     47      18.7322      0.00000
     48      18.7372      0.00000


--------------------------------------------------------------------------------------------------------


 soft charge-density along one line, spin component           1
         0         1         2         3         4         5         6         7         8         9
 total charge-density along one line
 
 pseudopotential strength for first ion, spin component:           1
 18.597  -0.001   0.000   0.000   0.000   0.000   0.000   0.000
 -0.001   0.006   0.000   0.000   0.000   0.000   0.000   0.000
  0.000   0.000   4.224   0.000   0.000  -0.005   0.000   0.000
  0.000   0.000   0.000   4.224   0.000   0.000  -0.005   0.000
  0.000   0.000   0.000   0.000   4.224   0.000   0.000  -0.005
  0.000   0.000  -0.005   0.000   0.000   0.005   0.000   0.000
  0.000   0.000   0.000  -0.005   0.000   0.000   0.005   0.000
  0.000   0.000   0.000   0.000  -0.005   0.000   0.000   0.005
 total augmentation occupancy for first ion, spin component:           1
  1.320  -1.086  -0.001  -0.002   0.000   0.001   0.002   0.001
 -1.086   1.012   0.000   0.000   0.001  -0.001  -0.002  -0.001
 -0.001   0.000   1.123   0.000  -0.001  -0.801   0.002   0.001
 -0.002   0.000   0.000   1.122  -0.001   0.001  -0.801   0.000
  0.000   0.001  -0.001  -0.001   1.123   0.001   0.000  -0.801
  0.001  -0.001  -0.801   0.001   0.001   0.648  -0.002  -0.001
  0.002  -0.002   0.002  -0.801   0.000  -0.002   0.648   0.000
  0.001  -0.001   0.001   0.000  -0.801  -0.001   0.000   0.648


----------------------------------------- Iteration    1(  12)  ---------------------------------------


    POTLOK:  cpu time    0.02: real time    0.02
    SETDIJ:  cpu time    0.02: real time    0.02
    EDDIAG:  cpu time    0.02: real time    0.02
  RMM-DIIS:  cpu time    0.04: real time    0.04
    ORTHCH:  cpu time    0.01: real time    0.01
       DOS:  cpu time    0.00: real time    0.00
    CHARGE:  cpu time    0.02: real time    0.02
    MIXING:  cpu time    0.00: real time    0.00
    --------------------------------------------
      LOOP:  cpu time    0.13: real time    0.13

 eigenvalue-minimisations  :   125
 total energy-change (2. order) :-0.3402776E-06  (-0.4137323E-07)
 number of electron      31.9999999 magnetization 
 augmentation part       -1.7274236 magnetization 

 Broyden mixing:
  rms(total) = 0.54649E-04    rms(broyden)= 0.54621E-04
  rms(prec ) = 0.80791E-04
  weight for this iteration     100.00

 eigenvalues of (default mixing * dielectric matrix)
  average eigenvalue GAMMA=   1.9806
  3.1852  2.7312  2.4445  2.1068  1.4395  0.9989  0.9581

 Free energy of the ion-electron system (eV)
  ---------------------------------------------------
  alpha Z        PSCENC =        12.68944982
  Ewald energy   TEWEN  =      -907.56838562
  -1/2 Hartree   DENC   =       -70.83112156
  -exchange  EXHF       =         0.00000000
  -V(xc)+E(xc)   XCENC  =       -72.91087968
  PAW double counting   =       307.73920227     -166.58046627
  entropy T*S    EENTRO =         0.00000000
  eigenvalues    EBANDS =        37.86302100
  atomic energy  EATOM  =       826.37398168
  ---------------------------------------------------
  free energy    TOTEN  =       -33.22519836 eV

  energy without entropy =      -33.22519836  energy(sigma->0) =      -33.22519836


--------------------------------------------------------------------------------------------------------




 average (electrostatic) potential at core
  the test charge radii are     0.9892
  (the norm of the test charge is              1.0000)
       1 -83.2275       2 -83.2264       3 -83.2279       4 -83.2263       5 -83.2272
       6 -83.2294       7 -83.2266       8 -83.2271
 
 
 
 E-fermi :   6.0546     XC(G=0):  -9.1311     alpha+bet :-11.7379


 k-point   1 :       0.0000    0.0000    0.0000
  band No.  band energies     occupation 
      1      -5.9500      2.00000
      2      -1.8734      2.00000
      3      -1.8693      2.00000
      4      -1.8656      2.00000
      5      -1.8640      2.00000
      6      -1.8612      2.00000
      7      -1.8561      2.00000
      8       3.0467      2.00000
      9       3.0492      2.00000
     10       3.0498      2.00000
     11       3.0515      2.00000
     12       3.0529      2.00000
[...]
    LRDIIS:  cpu time    0.02: real time    0.02
    LRDIAG:  cpu time    0.01: real time    0.01
    MIXING:  cpu time    0.00: real time    0.00
    --------------------------------------------
      LOOP:  cpu time    0.16: real time    0.16

 Broyden mixing:
  rms(total) = 0.12525E-01    rms(broyden)= 0.12522E-01
  rms(prec ) = 0.21708E-01
  weight for this iteration     100.00

 eigenvalues of (default mixing * dielectric matrix)
  average eigenvalue GAMMA=   2.0317
  2.5746  1.5328  1.9877

 Free energy of the ion-electron system (eV)
  ---------------------------------------------------
  -1/2 Hartree   DENC   =        -4.58217145
  -V(xc)+E(xc)   XCENC  =         0.93849603
  PAW double counting   =         3.11547323       -3.16504205
  entropy T*S    EENTRO =         0.00000000
  eigenvalues    EBANDS =       -24.49048810
  ---------------------------------------------------
  free energy    TOTEN  =       -28.18373234 eV

  energy without entropy =      -28.18373234


----------------------------------------- Iteration    3(   6)  ---------------------------------------


   POT+DIJ:  cpu time    0.08: real time    0.08
    HAMIL1:  cpu time    0.01: real time    0.01
    LRDIAG:  cpu time    0.01: real time    0.01
    LRDIIS:  cpu time    0.02: real time    0.02
    LRDIAG:  cpu time    0.01: real time    0.01
    MIXING:  cpu time    0.00: real time    0.00
    --------------------------------------------
      LOOP:  cpu time    0.15: real time    0.16

 Broyden mixing:
  rms(total) = 0.64706E-02    rms(broyden)= 0.64703E-02
  rms(prec ) = 0.11064E-01
  weight for this iteration     100.00

 eigenvalues of (default mixing * dielectric matrix)
  average eigenvalue GAMMA=   2.0762
  3.0438  2.4863  1.1187  1.6562

 Free energy of the ion-electron system (eV)
  ---------------------------------------------------
  -1/2 Hartree   DENC   =        -4.61312897
  -V(xc)+E(xc)   XCENC  =         0.94991632
  PAW double counting   =         3.09680604       -3.14611059
  entropy T*S    EENTRO =         0.00000000
  eigenvalues    EBANDS =       -24.52204898
  ---------------------------------------------------
  free energy    TOTEN  =       -28.23456618 eV

  energy without entropy =      -28.23456618


----------------------------------------- Iteration    3(   7)  ---------------------------------------


   POT+DIJ:  cpu time    0.08: real time    0.08
    HAMIL1:  cpu time    0.01: real time    0.01
    LRDIAG:  cpu time    0.01: real time    0.01
    LRDIIS:  cpu time    0.02: real time    0.02
    LRDIAG:  cpu time    0.01: real time    0.01
    MIXING:  cpu time    0.00: real time    0.00
    --------------------------------------------
      LOOP:  cpu time    0.15: real time    0.15

 Broyden mixing:
  rms(total) = 0.52154E-03    rms(broyden)= 0.52056E-03
  rms(prec ) = 0.91144E-03
  weight for this iteration     100.00

 eigenvalues of (default mixing * dielectric matrix)
  average eigenvalue GAMMA=   1.9974
  3.0976  2.3771  1.1111  1.7678  1.6335

 Free energy of the ion-electron system (eV)
  ---------------------------------------------------
  -1/2 Hartree   DENC   =        -4.62305800
  -V(xc)+E(xc)   XCENC  =         0.95684837
  PAW double counting   =         3.06260576       -3.11139758
  entropy T*S    EENTRO =         0.00000000
  eigenvalues    EBANDS =       -24.55579371
  ---------------------------------------------------
  free energy    TOTEN  =       -28.27079515 eV

  energy without entropy =      -28.27079515


----------------------------------------- Iteration    3(   8)  ---------------------------------------


   POT+DIJ:  cpu time    0.07: real time    0.08
    HAMIL1:  cpu time    0.01: real time    0.01
    LRDIAG:  cpu time    0.01: real time    0.01
    LRDIIS:  cpu time    0.02: real time    0.02
    LRDIAG:  cpu time    0.01: real time    0.01
    MIXING:  cpu time    0.00: real time    0.00
    --------------------------------------------
      LOOP:  cpu time    0.15: real time    0.15

 Broyden mixing:
  rms(total) = 0.27718E-03    rms(broyden)= 0.27711E-03
  rms(prec ) = 0.40387E-03
  weight for this iteration     100.00

 eigenvalues of (default mixing * dielectric matrix)
  average eigenvalue GAMMA=   1.9278
  3.0897  2.4819  2.1357  1.6663  1.1206  1.0726

 Free energy of the ion-electron system (eV)
  ---------------------------------------------------
  -1/2 Hartree   DENC   =        -4.62615596
  -V(xc)+E(xc)   XCENC  =         0.95761892
  PAW double counting   =         3.06695896       -3.11582328
  entropy T*S    EENTRO =         0.00000000
  eigenvalues    EBANDS =       -24.55639809
  ---------------------------------------------------
  free energy    TOTEN  =       -28.27379945 eV

  energy without entropy =      -28.27379945


----------------------------------------- Iteration    3(   9)  ---------------------------------------


   POT+DIJ:  cpu time    0.07: real time    0.08
    HAMIL1:  cpu time    0.01: real time    0.01
    LRDIAG:  cpu time    0.01: real time    0.01
    LRDIIS:  cpu time    0.02: real time    0.02
    LRDIAG:  cpu time    0.01: real time    0.01
    MIXING:  cpu time    0.00: real time    0.00
    --------------------------------------------
      LOOP:  cpu time    0.15: real time    0.15

 Broyden mixing:
  rms(total) = 0.87768E-04    rms(broyden)= 0.87746E-04
  rms(prec ) = 0.13536E-03
  weight for this iteration     100.00

 eigenvalues of (default mixing * dielectric matrix)
  average eigenvalue GAMMA=   1.8906
  3.1801  2.7434  2.4090  1.6727  1.2463  1.0903  0.8926

 Free energy of the ion-electron system (eV)
  ---------------------------------------------------
  -1/2 Hartree   DENC   =        -4.62588706
  -V(xc)+E(xc)   XCENC  =         0.95756188
  PAW double counting   =         3.06944025       -3.11834723
  entropy T*S    EENTRO =         0.00000000
  eigenvalues    EBANDS =       -24.55663703
  ---------------------------------------------------
  free energy    TOTEN  =       -28.27386919 eV

  energy without entropy =      -28.27386919


----------------------------------------- Iteration    3(  10)  ---------------------------------------


   POT+DIJ:  cpu time    0.07: real time    0.08
    HAMIL1:  cpu time    0.01: real time    0.01
    LRDIAG:  cpu time    0.01: real time    0.01
    LRDIIS:  cpu time    0.02: real time    0.02
    LRDIAG:  cpu time    0.01: real time    0.01
    MIXING:  cpu time    0.00: real time    0.00
    --------------------------------------------
      LOOP:  cpu time    0.15: real time    0.15

 Broyden mixing:
  rms(total) = 0.12187E-04    rms(broyden)= 0.12175E-04
  rms(prec ) = 0.21045E-04
  weight for this iteration     100.00

 eigenvalues of (default mixing * dielectric matrix)
  average eigenvalue GAMMA=   1.8396
  3.1956  2.7722  2.4463  1.6705  1.4724  0.9866  1.1238  1.0496

 Free energy of the ion-electron system (eV)
  ---------------------------------------------------
  -1/2 Hartree   DENC   =        -4.62596388
  -V(xc)+E(xc)   XCENC  =         0.95760127
  PAW double counting   =         3.07039844       -3.11932216
  entropy T*S    EENTRO =         0.00000000
  eigenvalues    EBANDS =       -24.55687224
  ---------------------------------------------------
  free energy    TOTEN  =       -28.27415857 eV

  energy without entropy =      -28.27415857


----------------------------------------- Iteration    3(  11)  ---------------------------------------


   POT+DIJ:  cpu time    0.07: real time    0.08
    HAMIL1:  cpu time    0.01: real time    0.01
    LRDIAG:  cpu time    0.01: real time    0.01
    LRDIIS:  cpu time    0.02: real time    0.02
    LRDIAG:  cpu time    0.01: real time    0.01
    MIXING:  cpu time    0.00: real time    0.00
    --------------------------------------------
      LOOP:  cpu time    0.16: real time    0.16

 Broyden mixing:
  rms(total) = 0.36940E-05    rms(broyden)= 0.36920E-05
  rms(prec ) = 0.52150E-05
  weight for this iteration     100.00

 eigenvalues of (default mixing * dielectric matrix)
  average eigenvalue GAMMA=   1.8820
  3.2018  2.7827  2.4448  2.3148  1.6711  1.4052  1.1056  1.0059  1.0059

 Free energy of the ion-electron system (eV)
  ---------------------------------------------------
  -1/2 Hartree   DENC   =        -4.62596988
  -V(xc)+E(xc)   XCENC  =         0.95759889
  PAW double counting   =         3.07042298       -3.11934709
  entropy T*S    EENTRO =         0.00000000
  eigenvalues    EBANDS =       -24.55685803
  ---------------------------------------------------
  free energy    TOTEN  =       -28.27415313 eV

  energy without entropy =      -28.27415313


----------------------------------------- Iteration    3(  12)  ---------------------------------------


   POT+DIJ:  cpu time    0.07: real time    0.08
    HAMIL1:  cpu time    0.01: real time    0.01
    LRDIAG:  cpu time    0.01: real time    0.01
    LRDIIS:  cpu time    0.02: real time    0.02
    LRDIAG:  cpu time    0.01: real time    0.01
    MIXING:  cpu time    0.00: real time    0.00
    --------------------------------------------
      LOOP:  cpu time    0.15: real time    0.15

 Broyden mixing:
  rms(total) = 0.99643E-06    rms(broyden)= 0.99603E-06
  rms(prec ) = 0.14665E-05
  weight for this iteration     100.00

 eigenvalues of (default mixing * dielectric matrix)
  average eigenvalue GAMMA=   1.8407
  3.2054  2.8164  2.4621  2.4621  1.6693  1.3359  1.3359  1.0075  1.0075  1.1048

 Free energy of the ion-electron system (eV)
  ---------------------------------------------------
  -1/2 Hartree   DENC   =        -4.62597150
  -V(xc)+E(xc)   XCENC  =         0.95759895
  PAW double counting   =         3.07034210       -3.11926481
  entropy T*S    EENTRO =         0.00000000
  eigenvalues    EBANDS =       -24.55685895
  ---------------------------------------------------
  free energy    TOTEN  =       -28.27415421 eV

  energy without entropy =      -28.27415421


------------------------ aborting loop because EDIFF is reached ----------------------------------------


 change of polarisation eV/A/(eV/A) component  3 :    -0.038     0.213    50.512
 dielectric tensor                  component  3 :    -0.042     0.236    56.847


--------------------------------------------------------------------------------------------------------


    FORLOC:  cpu time    0.00: real time    0.00
    FORNL :  cpu time    0.09: real time    0.09
    STRESS:  cpu time    0.29: real time    0.29
    FORCOR:  cpu time    0.02: real time    0.02
    FORLOC:  cpu time    0.00: real time    0.00
    FORNL :  cpu time    0.09: real time    0.09
    STRESS:  cpu time    0.29: real time    0.30
    FORCOR:  cpu time    0.02: real time    0.02
    FORNLD:  cpu time    0.01: real time    0.01

 PIEZOELECTRIC TENSOR FIELD DIRECTION 3  (e Angst)
 -----------------------------------------------------------------------------
     0.00318  0.00054 -0.00186           (  0.00006 -0.00005 -0.00011)
     0.00055 -0.00008 -0.00008           ( -0.00005  0.00003  0.00002)
    -0.00186 -0.00008 -0.00472           ( -0.00011  0.00002 -0.00009)

 PIEZOELECTRIC TENSOR FIELD DIRECTION 3  (C/m^2)
 -----------------------------------------------------------------------------
     0.00031  0.00005 -0.00018
     0.00005 -0.00001 -0.00001
    -0.00018 -0.00001 -0.00046


      POSITION         DIRECTION 3           BORN EFFECTIVE CHARGE    (rigid.aug.   ionic)
 -----------------------------------------------------------------------------------------
      5.46764      0.00363      0.00156     0.09265  0.04279 -5.76992 (  0.21593  4.00000)
      1.37113      1.36906      1.36941     0.02821  0.01296 -5.80327 (  0.21592  4.00000)
      2.73656      2.73691      5.46908    -0.05003 -0.00837 -5.76040 (  0.21593  4.00000)
      4.10441      4.10158      1.36832     0.05816 -0.06328 -5.80345 (  0.21592  4.00000)
      2.73408      0.00082      2.73578    -0.09449 -0.00116 -5.78127 (  0.21593  4.00000)
      4.10332      1.36828      4.10258    -0.02755  0.04988 -5.72877 (  0.21595  4.00000)
      0.00078      2.73508      2.73854     0.05341 -0.05469 -5.78938 (  0.21592  4.00000)
      1.36758      4.10604      4.10679    -0.05419 -0.02597 -5.76632 (  0.21593  4.00000)
 -----------------------------------------------------------------------------------------
    total drift (improves with k-points):   0.00618 -0.04784-46.20278




--------------------------------------------------------------------------------------------------------


  LATTYP: Found a simple cubic cell.
 ALAT       =     5.4700000000
  
  Lattice vectors:
  
 A1 = (   5.4700000000,   0.0000000000,   0.0000000000)
 A2 = (   0.0000000000,   5.4700000000,   0.0000000000)
 A3 = (   0.0000000000,   0.0000000000,   5.4700000000)


Analysis of symmetry for initial positions (statically):
=====================================================================
 Subroutine PRICEL returns:
 Original cell was already a primitive cell.
 

 Routine SETGRP: Setting up the symmetry group for a 
 simple cubic supercell.


 Subroutine GETGRP returns: Found  1 space group operations
 (whereof  1 operations were pure point group operations)
 out of a pool of 48 trial point group operations.


The static configuration has the point symmetry C_1 .


Analysis of symmetry for dynamics (positions and initial velocities):
=====================================================================
 Subroutine PRICEL returns:
 Original cell was already a primitive cell.
 

 Routine SETGRP: Setting up the symmetry group for a 
 simple cubic supercell.


 Subroutine GETGRP returns: Found  1 space group operations
 (whereof  1 operations were pure point group operations)
 out of a pool of 48 trial point group operations.


The dynamic configuration has the point symmetry C_1 .


 MACROSCOPIC STATIC DIELECTRIC TENSOR (including local field effects in DFT)
 ------------------------------------------------------
          56.862150     0.067145    -0.041699
           0.067147    56.843956     0.235777
          -0.041699     0.235775    56.847207
 ------------------------------------------------------



--------------------------------------------------------------------------------------------------------


  LATTYP: Found a simple cubic cell.
 ALAT       =     5.4700000000
  
  Lattice vectors:
  
 A1 = (   5.4700000000,   0.0000000000,   0.0000000000)
 A2 = (   0.0000000000,   5.4700000000,   0.0000000000)
 A3 = (   0.0000000000,   0.0000000000,   5.4700000000)


Analysis of symmetry for initial positions (statically):
=====================================================================
 Subroutine PRICEL returns:
 Original cell was already a primitive cell.
 

 Routine SETGRP: Setting up the symmetry group for a 
 simple cubic supercell.


 Subroutine GETGRP returns: Found  1 space group operations
 (whereof  1 operations were pure point group operations)
 out of a pool of 48 trial point group operations.


The static configuration has the point symmetry C_1 .


Analysis of symmetry for dynamics (positions and initial velocities):
=====================================================================
 Subroutine PRICEL returns:
 Original cell was already a primitive cell.
 

 Routine SETGRP: Setting up the symmetry group for a 
 simple cubic supercell.


 Subroutine GETGRP returns: Found  1 space group operations
 (whereof  1 operations were pure point group operations)
 out of a pool of 48 trial point group operations.


The dynamic configuration has the point symmetry C_1 .
 
 KPOINTS: Automatic mesh                          

Automatic generation of k-mesh.
Space group operators:
 irot       det(A)        alpha          n_x          n_y          n_z        tau_x        tau_y        tau_z
    1     1.000000     0.000001     1.000000     0.000000     0.000000     0.000000     0.000000     0.000000
 
 Subroutine IBZKPT returns following result:
 ===========================================
 
 Found      1 irreducible k-points:
 
 Following reciprocal coordinates:
            Coordinates               Weight
  0.000000  0.000000  0.000000      1.000000
 
 Following cartesian coordinates:
            Coordinates               Weight
  0.000000  0.000000  0.000000      1.000000
 


--------------------------------------------------------------------------------------------------------




 MACROSCOPIC STATIC DIELECTRIC TENSOR (including local field effects in DFT)
 ------------------------------------------------------
          56.862150     0.067145    -0.041699
           0.067147    56.843956     0.235777
          -0.041699     0.235775    56.847207
 ------------------------------------------------------


 PIEZOELECTRIC TENSOR  for field in x, y, z        (e  Angst)
          XX          YY          ZZ          XY          YZ          ZX
  --------------------------------------------------------------------------------
  x     0.00582    -0.00047     0.00263     0.00118    -0.00280     0.00139
  y     0.00227    -0.00216    -0.00432     0.00443    -0.00118    -0.00185
  z     0.00318    -0.00008    -0.00472     0.00055    -0.00008    -0.00186

 PIEZOELECTRIC TENSOR  for field in x, y, z        (C/m^2)
          XX          YY          ZZ          XY          YZ          ZX
  --------------------------------------------------------------------------------
  x     0.00057    -0.00005     0.00026     0.00012    -0.00027     0.00014
  y     0.00022    -0.00021    -0.00042     0.00043    -0.00012    -0.00018
  z     0.00031    -0.00001    -0.00046     0.00005    -0.00001    -0.00018
 
 BORN EFFECTIVE CHARGES (in e, cummulative output)
 -------------------------------------------------
 ion    1
    1    -5.77801     0.06084    -0.02222
    2    -0.01613    -5.76889    -0.10296
    3     0.09265     0.04279    -5.76992
 ion    2
    1    -5.80059    -0.01424    -0.06377
    2     0.04860    -5.77979    -0.05147
    3     0.02821     0.01296    -5.80327
 ion    3
    1    -5.76448    -0.06773     0.04794
    2     0.01007    -5.76678    -0.00910
    3    -0.05003    -0.00837    -5.76040
 ion    4
    1    -5.78496     0.01313    -0.01431
    2    -0.04934    -5.80138     0.01760
    3     0.05816    -0.06328    -5.80345
 ion    5
    1    -5.77747     0.02188     0.02177
    2    -0.03973    -5.77520    -0.00007
    3    -0.09449    -0.00116    -5.78127
 ion    6
    1    -5.73791     0.10570     0.06288
    2    -0.06942    -5.73253    -0.02979
    3    -0.02755     0.04988    -5.72877
 ion    7
    1    -5.78880    -0.02195    -0.04426
    2     0.03731    -5.78873     0.09132
    3     0.05341    -0.05469    -5.78938
 ion    8
    1    -5.78588    -0.11116     0.01918
    2     0.06541    -5.78950     0.03801
    3    -0.05419    -0.02597    -5.76632


--------------------------------------------------------------------------------------------------------


     LOOP+:  cpu time   19.65: real time   20.18
    4ORBIT:  cpu time    0.00: real time    0.00

 total amount of memory used by VASP on root node    32224. kBytes
========================================================================

   base      :      30000. kBytes
   nonl-proj :        202. kBytes
   fftplans  :        782. kBytes
   grid      :       1198. kBytes
   one-center:         24. kBytes
   wavefun   :         18. kBytes
 
  
  
 General timing and accounting informations for this job:
 ========================================================
  
                  Total CPU time used (sec):       20.861
                            User time (sec):       15.713
                          System time (sec):        5.148
                         Elapsed time (sec):       23.368
  
                   Maximum memory used (kb):       71316.
                   Average memory used (kb):           0.
  
                          Minor page faults:       205002
                          Major page faults:            0
                 Voluntary context switches:         1398
