 vasp.5.3.3 18Dez12 (build Jan  9 2014 12:00:49) complex                        
  
 executed on             LinuxIFC date 2014.01.29  10:01:17
 running on   48 total cores
 distrk:  each k-point on   48 cores,    1 groups
 distr:  one band on NCORES_PER_BAND=   1 cores,   48 groups


--------------------------------------------------------------------------------------------------------


 INCAR:
 POTCAR:    PAW Si                                

 ----------------------------------------------------------------------------- 
|                                                                             |
|           W    W    AA    RRRRR   N    N  II  N    N   GGGG   !!!           |
|           W    W   A  A   R    R  NN   N  II  NN   N  G    G  !!!           |
|           W    W  A    A  R    R  N N  N  II  N N  N  G       !!!           |
|           W WW W  AAAAAA  RRRRR   N  N N  II  N  N N  G  GGG   !            |
|           WW  WW  A    A  R   R   N   NN  II  N   NN  G    G                |
|           W    W  A    A  R    R  N    N  II  N    N   GGGG   !!!           |
|                                                                             |
|      For optimal performance we recommend that you set                      |
|        NPAR = 4 - approx SQRT( number of cores)                             |
|      (number of cores/NPAR must be integer)                                 |
|      This setting will greatly improve the performance of VASP for DFT.     |
|      The default NPAR=number of cores might be grossly inefficient          |
|      on modern multi-core architectures or massively parallel machines.     |
|      Do your own testing.                                                   |
|      Unfortunately you need to use the default for hybrid, GW and RPA       |
|      calculations.                                                          |
|                                                                             |
 ----------------------------------------------------------------------------- 

 POTCAR:    PAW Si                                
   VRHFIN =Si: s2p2                                                             
   LEXCH  = 91                                                                  
   EATOM  =   103.3076 eV,    7.5929 Ry                                         
                                                                                
   TITEL  = PAW Si                                                              
   LULTRA =        F    use ultrasoft PP ?                                      
   IUNSCR =        1    unscreen: 0-lin 1-nonlin 2-no                           
   RPACOR =    1.500    partial core radius                                     
   POMASS =   28.085; ZVAL   =    4.000    mass and valenz                      
   RCORE  =    1.900    outmost cutoff radius                                   
   RWIGS  =    2.480; RWIGS  =    1.312    wigner-seitz radius (au A)           
   ENMAX  =  245.435; ENMIN  =  184.076 eV                                      
   ICORE  =        2    local potential                                         
   LCOR   =        T    correct aug charges                                     
   LPAW   =        T    paw PP                                                  
   EAUG   =  322.069                                                            
   DEXC   =    -.001                                                            
   RMAX   =    2.943    core radius for proj-oper                               
   RAUG   =    1.300    factor for augmentation sphere                          
   RDEP   =    1.993    core radius for depl-charge                             
   QCUT   =   -4.247; QGAM   =    8.494    optimization parameters              
                                                                                
   Description                                                                  
     l     E      TYP  RCUT    TYP  RCUT                                        
     0   .000     23  1.900                                                     
     0   .000     23  1.900                                                     
     1   .000     23  1.900                                                     
     1   .000     23  1.900                                                     
     2   .000      7  1.900                                                     
  local pseudopotential read in
  partial core-charges read in
  atomic valenz-charges read in
  non local Contribution for L=           0  read in
    real space projection operators read in
  non local Contribution for L=           0  read in
    real space projection operators read in
  non local Contribution for L=           1  read in
    real space projection operators read in
  non local Contribution for L=           1  read in
    real space projection operators read in
    PAW grid and wavefunctions read in
 
   number of l-projection  operators is LMAX  =           4
   number of lm-projection operators is LMMAX =           8
 
  PAW Si                                :
 energy of atom  1       EATOM= -103.3076
 kinetic energy error for atom=    0.0109 (will be added to EATOM!!)
 
 
 POSCAR: OUTCAR.0009.-1.out 1.0e-02              
  positions in cartesian coordinates
  No initial velocities read in
 exchange correlation table for  LEXCH =        7
   RHO(1)=    0.500       N(1)  =     2000
   RHO(2)=  100.500       N(2)  =     4000

 VTST: version 3.0c, (01/09/14)

 CHAIN: initializing optimizer
 
 OPT: Using VASP Dynamics algorithm
 CHAIN: Read ICHAIN            0
 
 POSCAR: OUTCAR.0009.-1.out 1.0e-02              
  positions in cartesian coordinates
  No initial velocities read in
 


--------------------------------------------------------------------------------------------------------


 ion  position               nearest neighbor table
   1  1.000  0.999  1.000-   8 2.36   4 2.37   2 2.37   6 2.37
   2  0.249  0.250  0.250-   7 2.37   5 2.37   1 2.37   3 2.37
   3  0.500  0.500  1.000-   8 2.37   4 2.37   6 2.37   2 2.37
   4  0.750  0.750  0.250-   1 2.37   3 2.37   7 2.37   5 2.37
   5  0.500  1.000  0.500-   6 2.37   8 2.37   2 2.37   4 2.37
   6  0.750  0.250  0.749-   7 2.37   5 2.37   3 2.37   1 2.37
   7  1.000  0.499  0.500-   2 2.37   6 2.37   8 2.37   4 2.37
   8  0.249  0.750  0.750-   1 2.36   3 2.37   7 2.37   5 2.37
 
  LATTYP: Found a simple cubic cell.
 ALAT       =     5.4700000000
  
  Lattice vectors:
  
 A1 = (   5.4700000000,   0.0000000000,   0.0000000000)
 A2 = (   0.0000000000,   5.4700000000,   0.0000000000)
 A3 = (   0.0000000000,   0.0000000000,   5.4700000000)


Analysis of symmetry for initial positions (statically):
=====================================================================
 Subroutine PRICEL returns:
 Original cell was already a primitive cell.
 

 Routine SETGRP: Setting up the symmetry group for a 
 simple cubic supercell.


 Subroutine GETGRP returns: Found  1 space group operations
 (whereof  1 operations were pure point group operations)
 out of a pool of 48 trial point group operations.


The static configuration has the point symmetry C_1 .


Analysis of symmetry for dynamics (positions and initial velocities):
=====================================================================
 Subroutine PRICEL returns:
 Original cell was already a primitive cell.
 

 Routine SETGRP: Setting up the symmetry group for a 
 simple cubic supercell.


 Subroutine GETGRP returns: Found  1 space group operations
 (whereof  1 operations were pure point group operations)
 out of a pool of 48 trial point group operations.


The dynamic configuration has the point symmetry C_1 .


 irot  :   1
 --------------------------------------------------------------------
 isymop:   1   0   0
           0   1   0
           0   0   1

 gtrans:     0.0000000     0.0000000     0.0000000

 ptrans:     0.0000000     0.0000000     0.0000000
 rotmap:
 (   1->   1)  (   2->   2)  (   3->   3)  (   4->   4)  (   5->   5) 
 (   6->   6)  (   7->   7)  (   8->   8) 
 
 
 KPOINTS: Automatic mesh                          

Automatic generation of k-mesh.
Space group operators:
 irot       det(A)        alpha          n_x          n_y          n_z        tau_x        tau_y        tau_z
    1     1.000000     0.000001     1.000000     0.000000     0.000000     0.000000     0.000000     0.000000
 
 Subroutine IBZKPT returns following result:
 ===========================================
 
 Found      1 irreducible k-points:
 
 Following reciprocal coordinates:
            Coordinates               Weight
  0.000000  0.000000  0.000000      1.000000
 
 Following cartesian coordinates:
            Coordinates               Weight
  0.000000  0.000000  0.000000      1.000000
 
 
 Subroutine IBZKPT_HF returns following result:
 ==============================================
 
 Found      1 k-points in 1st BZ
 the following      1 k-points will be used (e.g. in the exchange kernel)
 Following reciprocal coordinates:   # in IRBZ
  0.000000  0.000000  0.000000       1 t-inv F


--------------------------------------------------------------------------------------------------------




 Dimension of arrays:
   k-points           NKPTS =      1   k-points in BZ     NKDIM =      1   number of bands    NBANDS=     48
   number of dos      NEDOS =    301   number of ions     NIONS =      8
   non local maximal  LDIM  =      4   non local SUM 2l+1 LMDIM =      8
   total plane-waves  NPLWV =  21952
   max r-space proj   IRMAX =      1   max aug-charges    IRDMAX=  36071
   dimension x,y,z NGX =    28 NGY =   28 NGZ =   28
   dimension x,y,z NGXF=    56 NGYF=   56 NGZF=   56
   support grid    NGXF=   112 NGYF=  112 NGZF=  112
   ions per type =               8
 NGX,Y,Z   is equivalent  to a cutoff of   8.51,  8.51,  8.51 a.u.
 NGXF,Y,Z  is equivalent  to a cutoff of  17.02, 17.02, 17.02 a.u.


 I would recommend the setting:
   dimension x,y,z NGX =    19 NGY =   19 NGZ =   19
 SYSTEM =  NAPTHA04                                
 POSCAR =  OUTCAR.0009.-1.out 1.0e-02              

 Startparameter for this run:
   NWRITE =      3    write-flag & timer
   PREC   = normal    normal or accurate (medium, high low for compatibility)
   ISTART =      0    job   : 0-new  1-cont  2-samecut
   ICHARG =      2    charge: 1-file 2-atom 10-const
   ISPIN  =      1    spin polarized calculation?
   LNONCOLLINEAR =      F non collinear calculations
   LSORBIT =      F    spin-orbit coupling
   INIWAV =      1    electr: 0-lowe 1-rand  2-diag
   LASPH  =      F    aspherical Exc in radial PAW
   METAGGA=      F    non-selfconsistent MetaGGA calc.

 Electronic Relaxation 1
   ENCUT  =  200.0 eV  14.70 Ry    3.83 a.u.   6.31  6.31  6.31*2*pi/ulx,y,z
   ENINI  =  200.0     initial cutoff
   ENAUG  =  322.1 eV  augmentation charge cutoff
   NELM   =     60;   NELMIN=  2; NELMDL= -5     # of ELM steps 
   EDIFF  = 0.1E-07   stopping-criterion for ELM
   LREAL  =      F    real-space projection
   NLSPLINE    = F    spline interpolate recip. space projectors
   LCOMPAT=      F    compatible to vasp.4.4
   GGA_COMPAT  = T    GGA compatible to vasp.4.4-vasp.4.6
   LMAXPAW     = -100 max onsite density
   LMAXMIX     =    2 max onsite mixed and CHGCAR
   VOSKOWN=      0    Vosko Wilk Nusair interpolation
   ROPT   =    0.00000
 Ionic relaxation
   EDIFFG = 0.1E-06   stopping-criterion for IOM
   NSW    =      0    number of steps for IOM
   NBLOCK =      1;   KBLOCK =      1    inner block; outer block 
   IBRION =     -1    ionic relax: 0-MD 1-quasi-New 2-CG
   NFREE  =      0    steps in history (QN), initial steepest desc. (CG)
   ISIF   =      2    stress and relaxation
   IWAVPR =     10    prediction:  0-non 1-charg 2-wave 3-comb
   ISYM   =      2    0-nonsym 1-usesym 2-fastsym
   LCORR  =      T    Harris-Foulkes like correction to forces

   POTIM  = 0.5000    time-step for ionic-motion
   TEIN   =    0.0    initial temperature
   TEBEG  =    0.0;   TEEND  =   0.0 temperature during run
   SMASS  =  -3.00    Nose mass-parameter (am)
   estimated Nose-frequenzy (Omega)   =  0.10E-29 period in steps =****** mass=  -0.684E-27a.u.
   SCALEE = 1.0000    scale energy and forces
   NPACO  =    256;   APACO  = 16.0  distance and # of slots for P.C.
   PSTRESS=    0.0 pullay stress

  Mass of Ions in am
   POMASS =  28.09
  Ionic Valenz
   ZVAL   =   4.00
  Atomic Wigner-Seitz radii
   RWIGS  =  -1.00
  virtual crystal weights 
   VCA    =   1.00
   NELECT =      32.0000    total number of electrons
   NUPDOWN=      -1.0000    fix difference up-down

 DOS related values:
   EMIN   =  10.00;   EMAX   =-10.00  energy-range for DOS
   EFERMI =   0.00
   ISMEAR =     0;   SIGMA  =   0.02  broadening in eV -4-tet -1-fermi 0-gaus

 Electronic relaxation 2 (details)
   IALGO  =     68    algorithm
   LDIAG  =      T    sub-space diagonalisation (order eigenvalues)
   LSUBROT=      T    optimize rotation matrix (better conditioning)
   TURBO    =      0    0=normal 1=particle mesh
   IRESTART =      0    0=no restart 2=restart with 2 vectors
   NREBOOT  =      0    no. of reboots
   NMIN     =      0    reboot dimension
   EREF     =   0.00    reference energy to select bands
   IMIX   =      4    mixing-type and parameters
     AMIX     =   0.40;   BMIX     =  1.00
     AMIX_MAG =   1.60;   BMIX_MAG =  1.00
     AMIN     =   0.10
     WC   =   100.;   INIMIX=   1;  MIXPRE=   1;  MAXMIX= -45

 Intra band minimization:
   WEIMIN = 0.0000     energy-eigenvalue tresh-hold
   EBREAK =  0.52E-10  absolut break condition
   DEPER  =   0.30     relativ break condition  

   TIME   =   0.40     timestep for ELM

  volume/ion in A,a.u.               =      20.46       138.06
  Fermi-wavevector in a.u.,A,eV,Ry     =   0.950176  1.795573 12.283814  0.902835
  Thomas-Fermi vector in A             =   2.078528
 
 Write flags
   LWAVE  =      F    write WAVECAR
   LCHARG =      F    write CHGCAR
   LVTOT  =      F    write LOCPOT, total local potential
   LVHAR  =      F    write LOCPOT, Hartree potential only
   LELF   =      F    write electronic localiz. function (ELF)
   LORBIT =      0    0 simple, 1 ext, 2 COOP (PROOUT)


 Dipole corrections
   LMONO  =      F    monopole corrections only (constant potential shift)
   LDIPOL =      F    correct potential (dipole corrections)
   IDIPOL =      0    1-x, 2-y, 3-z, 4-all directions 
   EPSILON=  1.0000000 bulk dielectric constant

 Exchange correlation treatment:
   GGA     =    --    GGA type
   LEXCH   =     7    internal setting for exchange type
   VOSKOWN=      0    Vosko Wilk Nusair interpolation
   LHFCALC =     F    Hartree Fock is set to
   LHFONE  =     F    Hartree Fock one center treatment
   AEXX    =    0.0000 exact exchange contribution

 Linear response parameters
   LEPSILON=     T    determine dielectric tensor
   LRPA    =     F    only Hartree local field effects (RPA)
   LNABLA  =     F    use nabla operator in PAW spheres
   LVEL    =     F    velocity operator in full k-point grid
   LINTERFAST=   F  fast interpolation
   KINTER  =     0    interpolate to denser k-point grid
   CSHIFT  =0.1000    complex shift for real part using Kramers Kronig
   OMEGAMAX=  -1.0    maximum frequency
   DEG_THRESHOLD= 0.2000000E-02 threshold for treating states as degnerate
   RTIME   =    0.100 relaxation time in fs

 Orbital magnetization related:
   ORBITALMAG=     F  switch on orbital magnetization
   LCHIMAG   =     F  perturbation theory with respect to B field
   DQ        =  0.001000  dq finite difference perturbation B field



--------------------------------------------------------------------------------------------------------


 Static calculation
 charge density and potential will be updated during run
 non-spin polarized calculation
 RMM-DIIS sequential band-by-band and
  variant of blocked Davidson during initial phase
 perform sub-space diagonalisation
    before iterative eigenvector-optimisation
 modified Broyden-mixing scheme, WC =      100.0
 initial mixing is a Kerker type mixing with AMIX =  0.4000 and BMIX =      1.0000
 Hartree-type preconditioning will be used
 using additional bands           32
 reciprocal scheme for non local part
 use partial core corrections
 calculate Harris-corrections to forces 
   (improved forces if not selfconsistent)
 use gradient corrections 
 use of overlap-Matrix (Vanderbilt PP)
 Gauss-broadening in eV      SIGMA  =   0.02


--------------------------------------------------------------------------------------------------------


  energy-cutoff  :      200.00
  volume of cell :      163.67
      direct lattice vectors                 reciprocal lattice vectors
     5.470000000  0.000000000  0.000000000     0.182815356  0.000000000  0.000000000
     0.000000000  5.470000000  0.000000000     0.000000000  0.182815356  0.000000000
     0.000000000  0.000000000  5.470000000     0.000000000  0.000000000  0.182815356

  length of vectors
     5.470000000  5.470000000  5.470000000     0.182815356  0.182815356  0.182815356


 
 k-points in units of 2pi/SCALE and weight: Automatic mesh                          
   0.00000000  0.00000000  0.00000000       1.000
 
 k-points in reciprocal lattice and weights: Automatic mesh                          
   0.00000000  0.00000000  0.00000000       1.000
 
 position of ions in fractional coordinates (direct lattice) 
   0.99980854  0.99934316  0.99958259
   0.24934316  0.24958259  0.25013285
   0.49958259  0.50013285  0.99973742
   0.75013285  0.74973742  0.24964561
   0.49973742  0.99964561  0.49997203
   0.74964561  0.24997203  0.74934701
   0.99997203  0.49934701  0.50002069
   0.24934701  0.75002069  0.74996950
 
 position of ions in cartesian coordinates  (Angst):
   5.46895271  5.46640706  5.46771675
   1.36390706  1.36521675  1.36822672
   2.73271675  2.73572672  5.46856367
   4.10322672  4.10106367  1.36556150
   2.73356367  5.46806150  2.73484698
   4.10056150  1.36734698  4.09892814
   5.46984698  2.73142814  2.73511318
   1.36392814  4.10261318  4.10233315
 


--------------------------------------------------------------------------------------------------------


 k-point  1 :   0.0000 0.0000 0.0000  plane waves:    1021

 maximum and minimum number of plane-waves per node :      1021     1021

 maximum number of plane-waves:      1021
 maximum index in each direction: 
   IXMAX=    6   IYMAX=    6   IZMAX=    6
   IXMIN=   -6   IYMIN=   -6   IZMIN=   -6

 NGX is ok and might be reduce to  26
 NGY is ok and might be reduce to  26
 NGZ is ok and might be reduce to  26

 serial   3D FFT for wavefunctions
 parallel 3D FFT for charge:
    minimum data exchange during FFTs selected (reduces bandwidth)


 total amount of memory used by VASP on root node    32224. kBytes
========================================================================

   base      :      30000. kBytes
   nonl-proj :        202. kBytes
   fftplans  :        782. kBytes
   grid      :       1198. kBytes
   one-center:         24. kBytes
   wavefun   :         18. kBytes
 
 Broyden mixing: mesh for mixing (old mesh)
   NGX = 13   NGY = 13   NGZ = 13
  (NGX  = 56   NGY  = 56   NGZ  = 56)
  gives a total of   2197 points

 initial charge density was supplied:
 charge density of overlapping atoms calculated
 number of electron      32.0000000 magnetization 
 keeping initial charge density in first step


--------------------------------------------------------------------------------------------------------


 Maximum index for augmentation-charges         1783 (set IRDMAX)


--------------------------------------------------------------------------------------------------------


 First call to EWALD:  gamma=   0.324
 Maximum number of real-space cells 3x 3x 3
 Maximum number of reciprocal cells 3x 3x 3

 FEWALD executed in parallel
    FEWALD:  cpu time    0.00: real time    0.00


----------------------------------------- Iteration    1(   1)  ---------------------------------------


    POTLOK:  cpu time    0.04: real time    0.04
    SETDIJ:  cpu time    0.02: real time    0.02
     EDDAV:  cpu time    0.45: real time    0.45
       DOS:  cpu time    0.01: real time    0.01
    --------------------------------------------
      LOOP:  cpu time    0.52: real time    0.53

 eigenvalue-minimisations  :    96
 total energy-change (2. order) :-0.1014057E+02  (-0.7955960E+03)
 number of electron      32.0000000 magnetization 
 augmentation part       32.0000000 magnetization 

 Free energy of the ion-electron system (eV)
  ---------------------------------------------------
  alpha Z        PSCENC =        12.68944982
  Ewald energy   TEWEN  =      -907.56703301
  -1/2 Hartree   DENC   =       -45.63622774
  -exchange  EXHF       =         0.00000000
  -V(xc)+E(xc)   XCENC  =       -76.79671462
  PAW double counting   =       265.93453375     -123.69690146
  entropy T*S    EENTRO =        -0.00036814
  eigenvalues    EBANDS =        38.55870507
  atomic energy  EATOM  =       826.37398168
  ---------------------------------------------------
  free energy    TOTEN  =       -10.14057466 eV

  energy without entropy =      -10.14020652  energy(sigma->0) =      -10.14039059


--------------------------------------------------------------------------------------------------------




 average (electrostatic) potential at core
  the test charge radii are     0.9892
  (the norm of the test charge is              1.0000)
       1 -84.3527       2 -84.3489       3 -84.3462       4 -84.3490       5 -84.3495
       6 -84.3499       7 -84.3540       8 -84.3547
 
 
 
 E-fermi :   6.6072     XC(G=0):  -9.5533     alpha+bet :-11.7379


 k-point   1 :       0.0000    0.0000    0.0000
  band No.  band energies     occupation 
      1      -6.5896      2.00000
      2      -2.4161      2.00000
      3      -2.2486      2.00000
      4      -2.1208      2.00000
      5      -2.0268      2.00000
      6      -1.8771      2.00000
      7      -1.6788      2.00000
      8       2.7403      2.00000
      9       2.8506      2.00000
     10       2.9914      2.00000
     11       3.1628      2.00000
     12       3.3433      2.00000
     13       4.0771      2.00000
     14       6.1426      2.00000
     15       6.3623      2.00000
     16       6.5666      1.99588
     17       6.6478      0.00412
     18       6.8119      0.00000
     19       6.9048      0.00000
     20       7.1721      0.00000
     21       7.3772      0.00000
     22       8.0454      0.00000
     23       8.9808      0.00000
     24       9.3801      0.00000
     25      10.4465      0.00000
     26      11.4486      0.00000
     27      13.5070      0.00000
     28      14.7700      0.00000
     29      16.5581      0.00000
     30      16.8943      0.00000
     31      17.3617      0.00000
     32      17.5916      0.00000
     33      17.9297      0.00000
     34      18.1319      0.00000
     35      18.4988      0.00000
     36      18.8752      0.00000
     37      19.3723      0.00000
     38      19.5066      0.00000
     39      19.8579      0.00000
     40      20.2587      0.00000
     41      21.1049      0.00000
     42      21.6915      0.00000
     43      22.1766      0.00000
     44      22.7660      0.00000
     45      23.9038      0.00000
     46      24.4017      0.00000
     47      24.8204      0.00000
     48      25.8338      0.00000


--------------------------------------------------------------------------------------------------------


 soft charge-density along one line, spin component           1
         0         1         2         3         4         5         6         7         8         9
 total charge-density along one line
 
 pseudopotential strength for first ion, spin component:           1
 18.662   0.000   0.000   0.000   0.000   0.000   0.000   0.000
  0.000   0.006   0.000   0.000   0.000   0.000   0.000   0.000
  0.000   0.000   4.216   0.000   0.000  -0.004   0.000   0.000
  0.000   0.000   0.000   4.216   0.000   0.000  -0.004   0.000
  0.000   0.000   0.000   0.000   4.216   0.000   0.000  -0.004
  0.000   0.000  -0.004   0.000   0.000   0.005   0.000   0.000
  0.000   0.000   0.000  -0.004   0.000   0.000   0.005   0.000
  0.000   0.000   0.000   0.000  -0.004   0.000   0.000   0.005
 total augmentation occupancy for first ion, spin component:           1
  2.000   0.000   0.000   0.000   0.000   0.000   0.000   0.000
  0.000   0.000   0.000   0.000   0.000   0.000   0.000   0.000
  0.000   0.000   0.667   0.000   0.000   0.000   0.000   0.000
  0.000   0.000   0.000   0.667   0.000   0.000   0.000   0.000
  0.000   0.000   0.000   0.000   0.667   0.000   0.000   0.000
  0.000   0.000   0.000   0.000   0.000   0.000   0.000   0.000
  0.000   0.000   0.000   0.000   0.000   0.000   0.000   0.000
  0.000   0.000   0.000   0.000   0.000   0.000   0.000   0.000


----------------------------------------- Iteration    1(   2)  ---------------------------------------


     EDDAV:  cpu time    1.05: real time    1.09
       DOS:  cpu time    0.00: real time    0.00
    --------------------------------------------
      LOOP:  cpu time    1.07: real time    1.13

 eigenvalue-minimisations  :   144
 total energy-change (2. order) :-0.2431021E+02  (-0.2430622E+02)
 number of electron      32.0000000 magnetization 
 augmentation part       32.0000000 magnetization 

 Free energy of the ion-electron system (eV)
  ---------------------------------------------------
  alpha Z        PSCENC =        12.68944982
  Ewald energy   TEWEN  =      -907.56703301
  -1/2 Hartree   DENC   =       -45.63622774
  -exchange  EXHF       =         0.00000000
  -V(xc)+E(xc)   XCENC  =       -76.79671462
  PAW double counting   =       265.93453375     -123.69690146
  entropy T*S    EENTRO =         0.00000000
  eigenvalues    EBANDS =        14.24812465
  atomic energy  EATOM  =       826.37398168
  ---------------------------------------------------
  free energy    TOTEN  =       -34.45078694 eV

  energy without entropy =      -34.45078694  energy(sigma->0) =      -34.45078694


--------------------------------------------------------------------------------------------------------




 average (electrostatic) potential at core
  the test charge radii are     0.9892
  (the norm of the test charge is              1.0000)
       1 -84.3527       2 -84.3489       3 -84.3462       4 -84.3490       5 -84.3495
       6 -84.3499       7 -84.3540       8 -84.3547
 
 
 
 E-fermi :   5.2486     XC(G=0):  -9.5533     alpha+bet :-11.7379


 k-point   1 :       0.0000    0.0000    0.0000
  band No.  band energies     occupation 
      1      -6.6371      2.00000
      2      -2.6470      2.00000
      3      -2.6329      2.00000
      4      -2.6310      2.00000
      5      -2.6270      2.00000
      6      -2.6234      2.00000
      7      -2.6138      2.00000
      8       2.3740      2.00000
      9       2.3777      2.00000
     10       2.3820      2.00000
     11       2.3831      2.00000
     12       2.3857      2.00000
     13       2.3935      2.00000
     14       5.0708      2.00000
     15       5.0826      2.00000
     16       5.0869      2.00000
     17       6.1466      0.00000
     18       6.1516      0.00000
     19       6.1551      0.00000
     20       6.1590      0.00000
     21       6.1610      0.00000
     22       6.1665      0.00000
     23       7.8510      0.00000
     24       7.8576      0.00000
     25       7.8629      0.00000
     26       8.1266      0.00000
     27      13.2004      0.00000
     28      13.2619      0.00000
     29      13.2700      0.00000
     30      15.1018      0.00000
     31      15.1335      0.00000
     32      15.1668      0.00000
     33      15.2501      0.00000
     34      15.3147      0.00000
     35      15.6381      0.00000
     36      16.3742      0.00000
     37      16.4266      0.00000
     38      16.4467      0.00000
     39      16.5441      0.00000
     40      16.7171      0.00000
     41      16.7517      0.00000
     42      16.7682      0.00000
     43      16.8754      0.00000
     44      17.2320      0.00000
     45      17.9167      0.00000
     46      17.9572      0.00000
     47      17.9959      0.00000
     48      18.0157      0.00000


--------------------------------------------------------------------------------------------------------


 soft charge-density along one line, spin component           1
         0         1         2         3         4         5         6         7         8         9
 total charge-density along one line
 
 pseudopotential strength for first ion, spin component:           1
 18.662   0.000   0.000   0.000   0.000   0.000   0.000   0.000
  0.000   0.006   0.000   0.000   0.000   0.000   0.000   0.000
  0.000   0.000   4.216   0.000   0.000  -0.004   0.000   0.000
  0.000   0.000   0.000   4.216   0.000   0.000  -0.004   0.000
  0.000   0.000   0.000   0.000   4.216   0.000   0.000  -0.004
  0.000   0.000  -0.004   0.000   0.000   0.005   0.000   0.000
  0.000   0.000   0.000  -0.004   0.000   0.000   0.005   0.000
  0.000   0.000   0.000   0.000  -0.004   0.000   0.000   0.005
 total augmentation occupancy for first ion, spin component:           1
  2.000   0.000   0.000   0.000   0.000   0.000   0.000   0.000
  0.000   0.000   0.000   0.000   0.000   0.000   0.000   0.000
  0.000   0.000   0.667   0.000   0.000   0.000   0.000   0.000
  0.000   0.000   0.000   0.667   0.000   0.000   0.000   0.000
  0.000   0.000   0.000   0.000   0.667   0.000   0.000   0.000
  0.000   0.000   0.000   0.000   0.000   0.000   0.000   0.000
  0.000   0.000   0.000   0.000   0.000   0.000   0.000   0.000
  0.000   0.000   0.000   0.000   0.000   0.000   0.000   0.000


----------------------------------------- Iteration    1(   3)  ---------------------------------------


     EDDAV:  cpu time    0.39: real time    0.39
       DOS:  cpu time    0.00: real time    0.00
    --------------------------------------------
      LOOP:  cpu time    0.39: real time    0.40

 eigenvalue-minimisations  :    96
 total energy-change (2. order) :-0.1669662E+00  (-0.1669662E+00)
 number of electron      32.0000000 magnetization 
 augmentation part       32.0000000 magnetization 

 Free energy of the ion-electron system (eV)
  ---------------------------------------------------
  alpha Z        PSCENC =        12.68944982
  Ewald energy   TEWEN  =      -907.56703301
  -1/2 Hartree   DENC   =       -45.63622774
  -exchange  EXHF       =         0.00000000
  -V(xc)+E(xc)   XCENC  =       -76.79671462
  PAW double counting   =       265.93453375     -123.69690146
  entropy T*S    EENTRO =         0.00000000
  eigenvalues    EBANDS =        14.08115845
  atomic energy  EATOM  =       826.37398168
  ---------------------------------------------------
  free energy    TOTEN  =       -34.61775314 eV

  energy without entropy =      -34.61775314  energy(sigma->0) =      -34.61775314


--------------------------------------------------------------------------------------------------------




 average (electrostatic) potential at core
  the test charge radii are     0.9892
  (the norm of the test charge is              1.0000)
       1 -84.3527       2 -84.3489       3 -84.3462       4 -84.3490       5 -84.3495
       6 -84.3499       7 -84.3540       8 -84.3547
 
 
 
 E-fermi :   5.2228     XC(G=0):  -9.5533     alpha+bet :-11.7379


 k-point   1 :       0.0000    0.0000    0.0000
  band No.  band energies     occupation 
      1      -6.6372      2.00000
      2      -2.6491      2.00000
      3      -2.6343      2.00000
      4      -2.6337      2.00000
      5      -2.6295      2.00000
      6      -2.6250      2.00000
      7      -2.6165      2.00000
      8       2.3704      2.00000
      9       2.3756      2.00000
     10       2.3772      2.00000
     11       2.3782      2.00000
     12       2.3804      2.00000
     13       2.3842      2.00000
     14       5.0598      2.00000
     15       5.0652      2.00000
     16       5.0749      2.00000
     17       6.1430      0.00000
     18       6.1489      0.00000
     19       6.1510      0.00000
     20       6.1554      0.00000
     21       6.1592      0.00000
     22       6.1617      0.00000
     23       7.8449      0.00000
     24       7.8503      0.00000
     25       7.8533      0.00000
     26       8.1178      0.00000
     27      13.1845      0.00000
     28      13.1866      0.00000
     29      13.2694      0.00000
     30      15.0836      0.00000
     31      15.0871      0.00000
     32      15.0930      0.00000
     33      15.1114      0.00000
     34      15.1293      0.00000
     35      15.1819      0.00000
     36      16.3111      0.00000
     37      16.3288      0.00000
     38      16.3419      0.00000
     39      16.3747      0.00000
     40      16.4349      0.00000
     41      16.4843      0.00000
     42      16.7090      0.00000
     43      16.7177      0.00000
     44      16.8183      0.00000
     45      17.8870      0.00000
     46      17.8977      0.00000
     47      17.9206      0.00000
     48      17.9389      0.00000


--------------------------------------------------------------------------------------------------------


 soft charge-density along one line, spin component           1
         0         1         2         3         4         5         6         7         8         9
 total charge-density along one line
 
 pseudopotential strength for first ion, spin component:           1
 18.662   0.000   0.000   0.000   0.000   0.000   0.000   0.000
  0.000   0.006   0.000   0.000   0.000   0.000   0.000   0.000
  0.000   0.000   4.216   0.000   0.000  -0.004   0.000   0.000
  0.000   0.000   0.000   4.216   0.000   0.000  -0.004   0.000
  0.000   0.000   0.000   0.000   4.216   0.000   0.000  -0.004
  0.000   0.000  -0.004   0.000   0.000   0.005   0.000   0.000
  0.000   0.000   0.000  -0.004   0.000   0.000   0.005   0.000
  0.000   0.000   0.000   0.000  -0.004   0.000   0.000   0.005
 total augmentation occupancy for first ion, spin component:           1
  2.000   0.000   0.000   0.000   0.000   0.000   0.000   0.000
  0.000   0.000   0.000   0.000   0.000   0.000   0.000   0.000
  0.000   0.000   0.667   0.000   0.000   0.000   0.000   0.000
  0.000   0.000   0.000   0.667   0.000   0.000   0.000   0.000
  0.000   0.000   0.000   0.000   0.667   0.000   0.000   0.000
  0.000   0.000   0.000   0.000   0.000   0.000   0.000   0.000
  0.000   0.000   0.000   0.000   0.000   0.000   0.000   0.000
  0.000   0.000   0.000   0.000   0.000   0.000   0.000   0.000


----------------------------------------- Iteration    1(   4)  ---------------------------------------


     EDDAV:  cpu time    1.99: real time    2.00
       DOS:  cpu time    0.00: real time    0.00
    --------------------------------------------
      LOOP:  cpu time    2.00: real time    2.01

 eigenvalue-minimisations  :   192
 total energy-change (2. order) :-0.3540140E-03  (-0.3540140E-03)
 number of electron      32.0000000 magnetization 
 augmentation part       32.0000000 magnetization 

 Free energy of the ion-electron system (eV)
  ---------------------------------------------------
  alpha Z        PSCENC =        12.68944982
  Ewald energy   TEWEN  =      -907.56703301
  -1/2 Hartree   DENC   =       -45.63622774
  -exchange  EXHF       =         0.00000000
  -V(xc)+E(xc)   XCENC  =       -76.79671462
  PAW double counting   =       265.93453375     -123.69690146
  entropy T*S    EENTRO =         0.00000000
  eigenvalues    EBANDS =        14.08080444
  atomic energy  EATOM  =       826.37398168
  ---------------------------------------------------
  free energy    TOTEN  =       -34.61810715 eV

  energy without entropy =      -34.61810715  energy(sigma->0) =      -34.61810715


--------------------------------------------------------------------------------------------------------




 average (electrostatic) potential at core
  the test charge radii are     0.9892
  (the norm of the test charge is              1.0000)
       1 -84.3527       2 -84.3489       3 -84.3462       4 -84.3490       5 -84.3495
       6 -84.3499       7 -84.3540       8 -84.3547
 
 
 
 E-fermi :   5.2002     XC(G=0):  -9.5533     alpha+bet :-11.7379


 k-point   1 :       0.0000    0.0000    0.0000
  band No.  band energies     occupation 
      1      -6.6372      2.00000
      2      -2.6491      2.00000
      3      -2.6343      2.00000
      4      -2.6337      2.00000
      5      -2.6295      2.00000
      6      -2.6250      2.00000
      7      -2.6165      2.00000
      8       2.3704      2.00000
      9       2.3755      2.00000
     10       2.3772      2.00000
     11       2.3782      2.00000
     12       2.3804      2.00000
     13       2.3841      2.00000
     14       5.0598      2.00000
     15       5.0652      2.00000
     16       5.0749      2.00000
     17       6.1430      0.00000
     18       6.1489      0.00000
     19       6.1510      0.00000
     20       6.1554      0.00000
     21       6.1592      0.00000
     22       6.1617      0.00000
     23       7.8449      0.00000
     24       7.8503      0.00000
     25       7.8533      0.00000
     26       8.1178      0.00000
     27      13.1837      0.00000
     28      13.1838      0.00000
     29      13.2694      0.00000
     30      15.0740      0.00000
     31      15.0826      0.00000
     32      15.0851      0.00000
     33      15.0851      0.00000
     34      15.0867      0.00000
     35      15.0951      0.00000
     36      16.2961      0.00000
     37      16.3063      0.00000
     38      16.3081      0.00000
     39      16.3099      0.00000
     40      16.3164      0.00000
     41      16.3259      0.00000
     42      16.6991      0.00000
     43      16.7052      0.00000
     44      16.7088      0.00000
     45      17.8736      0.00000
     46      17.8811      0.00000
     47      17.8869      0.00000
     48      17.8919      0.00000


--------------------------------------------------------------------------------------------------------


 soft charge-density along one line, spin component           1
         0         1         2         3         4         5         6         7         8         9
 total charge-density along one line
 
 pseudopotential strength for first ion, spin component:           1
 18.662   0.000   0.000   0.000   0.000   0.000   0.000   0.000
  0.000   0.006   0.000   0.000   0.000   0.000   0.000   0.000
  0.000   0.000   4.216   0.000   0.000  -0.004   0.000   0.000
  0.000   0.000   0.000   4.216   0.000   0.000  -0.004   0.000
  0.000   0.000   0.000   0.000   4.216   0.000   0.000  -0.004
  0.000   0.000  -0.004   0.000   0.000   0.005   0.000   0.000
  0.000   0.000   0.000  -0.004   0.000   0.000   0.005   0.000
  0.000   0.000   0.000   0.000  -0.004   0.000   0.000   0.005
 total augmentation occupancy for first ion, spin component:           1
  2.000   0.000   0.000   0.000   0.000   0.000   0.000   0.000
  0.000   0.000   0.000   0.000   0.000   0.000   0.000   0.000
  0.000   0.000   0.667   0.000   0.000   0.000   0.000   0.000
  0.000   0.000   0.000   0.667   0.000   0.000   0.000   0.000
  0.000   0.000   0.000   0.000   0.667   0.000   0.000   0.000
  0.000   0.000   0.000   0.000   0.000   0.000   0.000   0.000
  0.000   0.000   0.000   0.000   0.000   0.000   0.000   0.000
  0.000   0.000   0.000   0.000   0.000   0.000   0.000   0.000


----------------------------------------- Iteration    1(   5)  ---------------------------------------


     EDDAV:  cpu time    0.38: real time    0.38
       DOS:  cpu time    0.00: real time    0.00
    CHARGE:  cpu time    0.02: real time    0.02
    MIXING:  cpu time    0.00: real time    0.00
    --------------------------------------------
      LOOP:  cpu time    0.41: real time    0.42

 eigenvalue-minimisations  :    96
 total energy-change (2. order) :-0.3051127E-08  (-0.3053028E-08)
 number of electron      31.9999999 magnetization 
 augmentation part       -1.8053342 magnetization 

 Broyden mixing:
  rms(total) = 0.79307E+00    rms(broyden)= 0.79302E+00
  rms(prec ) = 0.15229E+01
  weight for this iteration     100.00

 Free energy of the ion-electron system (eV)
  ---------------------------------------------------
  alpha Z        PSCENC =        12.68944982
  Ewald energy   TEWEN  =      -907.56703301
  -1/2 Hartree   DENC   =       -45.63622774
  -exchange  EXHF       =         0.00000000
  -V(xc)+E(xc)   XCENC  =       -76.79671462
  PAW double counting   =       265.93453375     -123.69690146
  entropy T*S    EENTRO =         0.00000000
  eigenvalues    EBANDS =        14.08080443
  atomic energy  EATOM  =       826.37398168
  ---------------------------------------------------
  free energy    TOTEN  =       -34.61810716 eV

  energy without entropy =      -34.61810716  energy(sigma->0) =      -34.61810716


--------------------------------------------------------------------------------------------------------




 average (electrostatic) potential at core
  the test charge radii are     0.9892
  (the norm of the test charge is              1.0000)
       1 -84.3527       2 -84.3489       3 -84.3462       4 -84.3490       5 -84.3495
       6 -84.3499       7 -84.3540       8 -84.3547
 
 
 
 E-fermi :   5.1973     XC(G=0):  -9.5533     alpha+bet :-11.7379


 k-point   1 :       0.0000    0.0000    0.0000
  band No.  band energies     occupation 
      1      -6.6372      2.00000
      2      -2.6491      2.00000
      3      -2.6343      2.00000
      4      -2.6337      2.00000
      5      -2.6295      2.00000
      6      -2.6250      2.00000
      7      -2.6165      2.00000
      8       2.3704      2.00000
      9       2.3755      2.00000
     10       2.3772      2.00000
     11       2.3782      2.00000
     12       2.3804      2.00000
     13       2.3841      2.00000
     14       5.0598      2.00000
     15       5.0652      2.00000
     16       5.0749      2.00000
     17       6.1430      0.00000
     18       6.1489      0.00000
     19       6.1510      0.00000
     20       6.1554      0.00000
     21       6.1592      0.00000
     22       6.1617      0.00000
     23       7.8449      0.00000
     24       7.8503      0.00000
     25       7.8533      0.00000
     26       8.1178      0.00000
     27      13.1837      0.00000
     28      13.1838      0.00000
     29      13.2694      0.00000
     30      15.0740      0.00000
     31      15.0825      0.00000
     32      15.0851      0.00000
     33      15.0851      0.00000
     34      15.0866      0.00000
     35      15.0950      0.00000
     36      16.2959      0.00000
     37      16.3059      0.00000
     38      16.3077      0.00000
     39      16.3095      0.00000
     40      16.3161      0.00000
     41      16.3257      0.00000
     42      16.6990      0.00000
     43      16.7051      0.00000
     44      16.7085      0.00000
     45      17.8661      0.00000
     46      17.8768      0.00000
     47      17.8823      0.00000
     48      17.8860      0.00000


--------------------------------------------------------------------------------------------------------


 soft charge-density along one line, spin component           1
         0         1         2         3         4         5         6         7         8         9
 total charge-density along one line
 
 pseudopotential strength for first ion, spin component:           1
 18.662   0.000   0.000   0.000   0.000   0.000   0.000   0.000
  0.000   0.006   0.000   0.000   0.000   0.000   0.000   0.000
  0.000   0.000   4.216   0.000   0.000  -0.004   0.000   0.000
  0.000   0.000   0.000   4.216   0.000   0.000  -0.004   0.000
  0.000   0.000   0.000   0.000   4.216   0.000   0.000  -0.004
  0.000   0.000  -0.004   0.000   0.000   0.005   0.000   0.000
  0.000   0.000   0.000  -0.004   0.000   0.000   0.005   0.000
  0.000   0.000   0.000   0.000  -0.004   0.000   0.000   0.005
 total augmentation occupancy for first ion, spin component:           1
  1.380  -1.052  -0.002   0.000   0.001   0.003   0.000  -0.001
 -1.052   0.920   0.002   0.000  -0.001  -0.003   0.000   0.001
 -0.002   0.002   1.165   0.001   0.000  -0.759  -0.001   0.000
  0.000   0.000   0.001   1.166  -0.001  -0.001  -0.760   0.002
  0.001  -0.001   0.000  -0.001   1.163   0.000   0.003  -0.758
  0.003  -0.003  -0.759  -0.001   0.000   0.570   0.001   0.000
  0.000   0.000  -0.001  -0.760   0.003   0.001   0.571  -0.003
 -0.001   0.001   0.000   0.002  -0.758   0.000  -0.003   0.569


----------------------------------------- Iteration    1(   6)  ---------------------------------------


    POTLOK:  cpu time    0.02: real time    0.02
    SETDIJ:  cpu time    0.02: real time    0.02
    EDDIAG:  cpu time    0.03: real time    0.03
  RMM-DIIS:  cpu time    0.03: real time    0.03
    ORTHCH:  cpu time    0.01: real time    0.01
       DOS:  cpu time    0.00: real time    0.00
    CHARGE:  cpu time    0.02: real time    0.02
    MIXING:  cpu time    0.00: real time    0.00
    --------------------------------------------
      LOOP:  cpu time    0.13: real time    0.14

 eigenvalue-minimisations  :    96
 total energy-change (2. order) : 0.1001744E+01  (-0.3198039E-01)
 number of electron      31.9999999 magnetization 
 augmentation part       -1.7684060 magnetization 

 Broyden mixing:
  rms(total) = 0.47400E+00    rms(broyden)= 0.47400E+00
  rms(prec ) = 0.91068E+00
  weight for this iteration     100.00

 eigenvalues of (default mixing * dielectric matrix)
  average eigenvalue GAMMA=   2.4573
  2.4573

 Free energy of the ion-electron system (eV)
  ---------------------------------------------------
  alpha Z        PSCENC =        12.68944982
  Ewald energy   TEWEN  =      -907.56703301
  -1/2 Hartree   DENC   =       -54.68295690
  -exchange  EXHF       =         0.00000000
  -V(xc)+E(xc)   XCENC  =       -75.44938513
  PAW double counting   =       286.06092782     -144.35924387
  entropy T*S    EENTRO =         0.00000000
  eigenvalues    EBANDS =        23.31789691
  atomic energy  EATOM  =       826.37398168
  ---------------------------------------------------
  free energy    TOTEN  =       -33.61636268 eV

  energy without entropy =      -33.61636268  energy(sigma->0) =      -33.61636268


--------------------------------------------------------------------------------------------------------




 average (electrostatic) potential at core
  the test charge radii are     0.9892
  (the norm of the test charge is              1.0000)
       1 -83.8338       2 -83.8319       3 -83.8306       4 -83.8320       5 -83.8323
       6 -83.8325       7 -83.8345       8 -83.8348
 
 
 
 E-fermi :   5.5492     XC(G=0):  -9.4504     alpha+bet :-11.7379


 k-point   1 :       0.0000    0.0000    0.0000
  band No.  band energies     occupation 
      1      -6.3787      2.00000
      2      -2.3478      2.00000
      3      -2.3353      2.00000
      4      -2.3344      2.00000
      5      -2.3306      2.00000
      6      -2.3267      2.00000
      7      -2.3198      2.00000
      8       2.6323      2.00000
      9       2.6368      2.00000
     10       2.6382      2.00000
     11       2.6393      2.00000
     12       2.6413      2.00000
     13       2.6443      2.00000
     14       5.3933      2.00000
     15       5.3986      2.00000
     16       5.4082      2.00000
     17       6.2584      0.00000
     18       6.2637      0.00000
     19       6.2657      0.00000
     20       6.2698      0.00000
     21       6.2730      0.00000
     22       6.2751      0.00000
     23       8.0522      0.00000
     24       8.0577      0.00000
     25       8.0607      0.00000
     26       8.4862      0.00000
     27      13.3050      0.00000
     28      13.3568      0.00000
     29      13.3569      0.00000
     30      15.3712      0.00000
     31      15.3787      0.00000
     32      15.3812      0.00000
     33      15.3813      0.00000
     34      15.3827      0.00000
     35      15.3903      0.00000
     36      16.5330      0.00000
     37      16.5422      0.00000
     38      16.5438      0.00000
     39      16.5454      0.00000
     40      16.5514      0.00000
     41      16.5601      0.00000
     42      16.7435      0.00000
     43      16.7498      0.00000
     44      16.7532      0.00000
     45      18.1548      0.00000
     46      18.1675      0.00000
     47      18.1705      0.00000
     48      18.1750      0.00000


--------------------------------------------------------------------------------------------------------


 soft charge-density along one line, spin component           1
         0         1         2         3         4         5         6         7         8         9
 total charge-density along one line
 
 pseudopotential strength for first ion, spin component:           1
 18.635  -0.001   0.000   0.000   0.000   0.000   0.000   0.000
 -0.001   0.006   0.000   0.000   0.000   0.000   0.000   0.000
  0.000   0.000   4.221   0.000   0.000  -0.004   0.000   0.000
  0.000   0.000   0.000   4.221   0.000   0.000  -0.004   0.000
  0.000   0.000   0.000   0.000   4.221   0.000   0.000  -0.004
  0.000   0.000  -0.004   0.000   0.000   0.005   0.000   0.000
  0.000   0.000   0.000  -0.004   0.000   0.000   0.005   0.000
  0.000   0.000   0.000   0.000  -0.004   0.000   0.000   0.005
 total augmentation occupancy for first ion, spin component:           1
  1.351  -1.091  -0.002   0.000   0.001   0.003   0.000  -0.001
 -1.091   0.999   0.002  -0.001  -0.001  -0.003   0.000   0.001
 -0.002   0.002   1.147   0.001   0.000  -0.782  -0.001   0.000
  0.000  -0.001   0.001   1.148  -0.002  -0.001  -0.783   0.002
  0.001  -0.001   0.000  -0.002   1.145   0.000   0.003  -0.781
  0.003  -0.003  -0.782  -0.001   0.000   0.609   0.001   0.000
  0.000   0.000  -0.001  -0.783   0.003   0.001   0.609  -0.003
 -0.001   0.001   0.000   0.002  -0.781   0.000  -0.003   0.608


----------------------------------------- Iteration    1(   7)  ---------------------------------------


    POTLOK:  cpu time    0.02: real time    0.02
    SETDIJ:  cpu time    0.02: real time    0.02
    EDDIAG:  cpu time    0.02: real time    0.02
  RMM-DIIS:  cpu time    0.03: real time    0.03
    ORTHCH:  cpu time    0.00: real time    0.01
       DOS:  cpu time    0.00: real time    0.00
    CHARGE:  cpu time    0.02: real time    0.02
    MIXING:  cpu time    0.00: real time    0.00
    --------------------------------------------
      LOOP:  cpu time    0.12: real time    0.12

 eigenvalue-minimisations  :    96
 total energy-change (2. order) : 0.4246938E+00  (-0.7388810E-01)
 number of electron      31.9999999 magnetization 
 augmentation part       -1.7214472 magnetization 

 Broyden mixing:
  rms(total) = 0.46239E-01    rms(broyden)= 0.46229E-01
  rms(prec ) = 0.78435E-01
  weight for this iteration     100.00

 eigenvalues of (default mixing * dielectric matrix)
  average eigenvalue GAMMA=   2.5301
  2.5301  2.5301

 Free energy of the ion-electron system (eV)
  ---------------------------------------------------
  alpha Z        PSCENC =        12.68944982
  Ewald energy   TEWEN  =      -907.56703301
  -1/2 Hartree   DENC   =       -70.51480221
  -exchange  EXHF       =         0.00000000
  -V(xc)+E(xc)   XCENC  =       -73.00913404
  PAW double counting   =       313.72606044     -172.73811160
  entropy T*S    EENTRO =         0.00000000
  eigenvalues    EBANDS =        37.84792002
  atomic energy  EATOM  =       826.37398168
  ---------------------------------------------------
  free energy    TOTEN  =       -33.19166891 eV

  energy without entropy =      -33.19166891  energy(sigma->0) =      -33.19166891


--------------------------------------------------------------------------------------------------------




 average (electrostatic) potential at core
  the test charge radii are     0.9892
  (the norm of the test charge is              1.0000)
       1 -83.1459       2 -83.1446       3 -83.1444       4 -83.1451       5 -83.1448
       6 -83.1455       7 -83.1464       8 -83.1470
 
 
 
 E-fermi :   6.0980     XC(G=0):  -9.2018     alpha+bet :-11.7379


 k-point   1 :       0.0000    0.0000    0.0000
  band No.  band energies     occupation 
      1      -5.9621      2.00000
      2      -1.8792      2.00000
      3      -1.8688      2.00000
      4      -1.8676      2.00000
      5      -1.8640      2.00000
      6      -1.8608      2.00000
      7      -1.8554      2.00000
      8       3.0458      2.00000
      9       3.0496      2.00000
     10       3.0507      2.00000
     11       3.0518      2.00000
     12       3.0539      2.00000
     13       3.0561      2.00000
     14       5.9182      2.00000
     15       5.9233      2.00000
     16       5.9326      2.00000
     17       6.5178      0.00000
     18       6.5225      0.00000
     19       6.5245      0.00000
     20       6.5281      0.00000
     21       6.5306      0.00000
     22       6.5324      0.00000
     23       8.3773      0.00000
     24       8.3829      0.00000
     25       8.3859      0.00000
     26       9.0453      0.00000
     27      13.6014      0.00000
     28      13.6204      0.00000
     29      13.6205      0.00000
     30      15.8221      0.00000
     31      15.8288      0.00000
     32      15.8310      0.00000
     33      15.8312      0.00000
     34      15.8326      0.00000
     35      15.8395      0.00000
     36      16.8984      0.00000
     37      16.9042      0.00000
     38      16.9071      0.00000
     39      16.9537      0.00000
     40      16.9620      0.00000
     41      16.9632      0.00000
     42      16.9651      0.00000
     43      16.9702      0.00000
     44      16.9780      0.00000
     45      18.6532      0.00000
     46      18.6665      0.00000
     47      18.6721      0.00000
     48      18.6776      0.00000


--------------------------------------------------------------------------------------------------------


 soft charge-density along one line, spin component           1
         0         1         2         3         4         5         6         7         8         9
 total charge-density along one line
 
 pseudopotential strength for first ion, spin component:           1
 18.596  -0.001   0.000   0.000   0.000   0.000   0.000   0.000
 -0.001   0.006   0.000   0.000   0.000   0.000   0.000   0.000
  0.000   0.000   4.227   0.000   0.000  -0.005   0.000   0.000
  0.000   0.000   0.000   4.227   0.000   0.000  -0.005   0.000
  0.000   0.000   0.000   0.000   4.227   0.000   0.000  -0.005
  0.000   0.000  -0.005   0.000   0.000   0.005   0.000   0.000
  0.000   0.000   0.000  -0.005   0.000   0.000   0.005   0.000
  0.000   0.000   0.000   0.000  -0.005   0.000   0.000   0.005
 total augmentation occupancy for first ion, spin component:           1
  1.315  -1.113  -0.002   0.000   0.001   0.004   0.000  -0.002
 -1.113   1.059   0.001   0.000   0.000  -0.003   0.000   0.001
 -0.002   0.001   1.122   0.001   0.000  -0.805  -0.001   0.000
  0.000   0.000   0.001   1.123  -0.002  -0.001  -0.806   0.003
  0.001   0.000   0.000  -0.002   1.120   0.000   0.003  -0.804
  0.004  -0.003  -0.805  -0.001   0.000   0.653   0.002   0.000
  0.000   0.000  -0.001  -0.806   0.003   0.002   0.653  -0.003
 -0.002   0.001   0.000   0.003  -0.804   0.000  -0.003   0.652


----------------------------------------- Iteration    1(   8)  ---------------------------------------


    POTLOK:  cpu time    0.02: real time    0.02
    SETDIJ:  cpu time    0.02: real time    0.02
    EDDIAG:  cpu time    0.02: real time    0.02
  RMM-DIIS:  cpu time    0.02: real time    0.02
    ORTHCH:  cpu time    0.01: real time    0.01
       DOS:  cpu time    0.00: real time    0.00
    CHARGE:  cpu time    0.02: real time    0.02
    MIXING:  cpu time    0.00: real time    0.00
    --------------------------------------------
      LOOP:  cpu time    0.11: real time    0.12

 eigenvalue-minimisations  :    96
 total energy-change (2. order) :-0.3198915E-01  (-0.2162051E-02)
 number of electron      31.9999999 magnetization 
 augmentation part       -1.7275381 magnetization 

 Broyden mixing:
  rms(total) = 0.74750E-02    rms(broyden)= 0.74745E-02
  rms(prec ) = 0.17929E-01
  weight for this iteration     100.00

 eigenvalues of (default mixing * dielectric matrix)
  average eigenvalue GAMMA=   2.1229
  1.2789  2.8671  2.2227

 Free energy of the ion-electron system (eV)
  ---------------------------------------------------
  alpha Z        PSCENC =        12.68944982
  Ewald energy   TEWEN  =      -907.56703301
  -1/2 Hartree   DENC   =       -70.40034856
  -exchange  EXHF       =         0.00000000
  -V(xc)+E(xc)   XCENC  =       -72.96550541
  PAW double counting   =       307.36484499     -166.19211793
  entropy T*S    EENTRO =         0.00000000
  eigenvalues    EBANDS =        37.47307038
  atomic energy  EATOM  =       826.37398168
  ---------------------------------------------------
  free energy    TOTEN  =       -33.22365805 eV

  energy without entropy =      -33.22365805  energy(sigma->0) =      -33.22365805


--------------------------------------------------------------------------------------------------------




 average (electrostatic) potential at core
  the test charge radii are     0.9892
  (the norm of the test charge is              1.0000)
       1 -83.2499       2 -83.2469       3 -83.2452       4 -83.2472       5 -83.2474
       6 -83.2479       7 -83.2509       8 -83.2516
 
 
 
 E-fermi :   6.0372     XC(G=0):  -9.1504     alpha+bet :-11.7379


 k-point   1 :       0.0000    0.0000    0.0000
  band No.  band energies     occupation 
      1      -5.9631      2.00000
      2      -1.8921      2.00000
      3      -1.8804      2.00000
      4      -1.8793      2.00000
      5      -1.8756      2.00000
      6      -1.8720      2.00000
      7      -1.8657      2.00000
      8       3.0338      2.00000
      9       3.0381      2.00000
     10       3.0392      2.00000
     11       3.0403      2.00000
     12       3.0425      2.00000
     13       3.0451      2.00000
     14       5.9021      2.00000
     15       5.9072      2.00000
     16       5.9165      2.00000
     17       6.5683      0.00000
     18       6.5733      0.00000
     19       6.5753      0.00000
     20       6.5791      0.00000
     21       6.5817      0.00000
     22       6.5838      0.00000
     23       8.3666      0.00000
     24       8.3722      0.00000
     25       8.3753      0.00000
     26       9.0382      0.00000
     27      13.6064      0.00000
     28      13.6065      0.00000
     29      13.7785      0.00000
     30      15.8071      0.00000
     31      15.8144      0.00000
     32      15.8164      0.00000
     33      15.8165      0.00000
     34      15.8180      0.00000
     35      15.8253      0.00000
     36      16.9356      0.00000
     37      16.9409      0.00000
     38      16.9431      0.00000
     39      16.9598      0.00000
     40      16.9685      0.00000
     41      16.9695      0.00000
     42      16.9720      0.00000
     43      16.9770      0.00000
     44      16.9852      0.00000
     45      18.6903      0.00000
     46      18.7036      0.00000
     47      18.7106      0.00000
     48      18.7161      0.00000


--------------------------------------------------------------------------------------------------------


 soft charge-density along one line, spin component           1
         0         1         2         3         4         5         6         7         8         9
 total charge-density along one line
 
 pseudopotential strength for first ion, spin component:           1
 18.599  -0.001   0.000   0.000   0.000   0.000   0.000   0.000
 -0.001   0.006   0.000   0.000   0.000   0.000   0.000   0.000
  0.000   0.000   4.224   0.000   0.000  -0.005   0.000   0.000
  0.000   0.000   0.000   4.224   0.000   0.000  -0.005   0.000
  0.000   0.000   0.000   0.000   4.224   0.000   0.000  -0.005
  0.000   0.000  -0.005   0.000   0.000   0.005   0.000   0.000
  0.000   0.000   0.000  -0.005   0.000   0.000   0.005   0.000
  0.000   0.000   0.000   0.000  -0.005   0.000   0.000   0.005
 total augmentation occupancy for first ion, spin component:           1
  1.320  -1.093  -0.002   0.000   0.001   0.003   0.000  -0.002
 -1.093   1.022   0.002   0.000   0.000  -0.003   0.000   0.001
 -0.002   0.002   1.123   0.001   0.000  -0.801  -0.001   0.000
  0.000   0.000   0.001   1.125  -0.002  -0.001  -0.802   0.002
  0.001   0.000   0.000  -0.002   1.122   0.000   0.003  -0.800
  0.003  -0.003  -0.801  -0.001   0.000   0.648   0.001   0.000
  0.000   0.000  -0.001  -0.802   0.003   0.001   0.648  -0.003
 -0.002   0.001   0.000   0.002  -0.800   0.000  -0.003   0.647


----------------------------------------- Iteration    1(   9)  ---------------------------------------


    POTLOK:  cpu time    0.02: real time    0.02
    SETDIJ:  cpu time    0.02: real time    0.02
    EDDIAG:  cpu time    0.02: real time    0.02
  RMM-DIIS:  cpu time    0.04: real time    0.04
    ORTHCH:  cpu time    0.01: real time    0.01
       DOS:  cpu time    0.00: real time    0.00
    CHARGE:  cpu time    0.02: real time    0.02
    MIXING:  cpu time    0.00: real time    0.00
    --------------------------------------------
      LOOP:  cpu time    0.13: real time    0.13

 eigenvalue-minimisations  :   105
 total energy-change (2. order) :-0.1134785E-02  (-0.1268139E-03)
 number of electron      31.9999999 magnetization 
 augmentation part       -1.7274571 magnetization 

 Broyden mixing:
  rms(total) = 0.41759E-02    rms(broyden)= 0.41758E-02
  rms(prec ) = 0.68344E-02
  weight for this iteration     100.00

 eigenvalues of (default mixing * dielectric matrix)
  average eigenvalue GAMMA=   2.3045
  0.9894  3.2524  2.6900  2.2864

 Free energy of the ion-electron system (eV)
  ---------------------------------------------------
  alpha Z        PSCENC =        12.68944982
  Ewald energy   TEWEN  =      -907.56703301
  -1/2 Hartree   DENC   =       -70.79751171
  -exchange  EXHF       =         0.00000000
  -V(xc)+E(xc)   XCENC  =       -72.90619734
  PAW double counting   =       307.71624380     -166.55394029
  entropy T*S    EENTRO =         0.00000000
  eigenvalues    EBANDS =        37.82021421
  atomic energy  EATOM  =       826.37398168
  ---------------------------------------------------
  free energy    TOTEN  =       -33.22479284 eV

  energy without entropy =      -33.22479284  energy(sigma->0) =      -33.22479284


--------------------------------------------------------------------------------------------------------




 average (electrostatic) potential at core
  the test charge radii are     0.9892
  (the norm of the test charge is              1.0000)
       1 -83.2353       2 -83.2331       3 -83.2316       4 -83.2332       5 -83.2335
       6 -83.2337       7 -83.2360       8 -83.2364
 
 
 
 E-fermi :   6.0521     XC(G=0):  -9.1362     alpha+bet :-11.7379


 k-point   1 :       0.0000    0.0000    0.0000
  band No.  band energies     occupation 
      1      -5.9519      2.00000
      2      -1.8804      2.00000
      3      -1.8692      2.00000
      4      -1.8681      2.00000
      5      -1.8645      2.00000
      6      -1.8609      2.00000
      7      -1.8550      2.00000
      8       3.0439      2.00000
      9       3.0479      2.00000
     10       3.0491      2.00000
     11       3.0502      2.00000
     12       3.0523      2.00000
     13       3.0547      2.00000
     14       5.9142      2.00000
     15       5.9193      2.00000
     16       5.9286      2.00000
     17       6.5823      0.00000
     18       6.5874      0.00000
     19       6.5894      0.00000
     20       6.5932      0.00000
     21       6.5958      0.00000
     22       6.5979      0.00000
     23       8.3743      0.00000
     24       8.3799      0.00000
     25       8.3829      0.00000
     26       9.0527      0.00000
     27      13.6117      0.00000
     28      13.6117      0.00000
     29      13.8108      0.00000
     30      15.8177      0.00000
     31      15.8248      0.00000
     32      15.8270      0.00000
     33      15.8270      0.00000
     34      15.8285      0.00000
     35      15.8357      0.00000
     36      16.9456      0.00000
     37      16.9509      0.00000
     38      16.9533      0.00000
     39      16.9721      0.00000
     40      16.9807      0.00000
     41      16.9817      0.00000
     42      16.9841      0.00000
     43      16.9890      0.00000
     44      16.9971      0.00000
     45      18.7080      0.00000
     46      18.7215      0.00000
     47      18.7295      0.00000
     48      18.7349      0.00000


--------------------------------------------------------------------------------------------------------


 soft charge-density along one line, spin component           1
         0         1         2         3         4         5         6         7         8         9
 total charge-density along one line
 
 pseudopotential strength for first ion, spin component:           1
 18.598  -0.001   0.000   0.000   0.000   0.000   0.000   0.000
 -0.001   0.006   0.000   0.000   0.000   0.000   0.000   0.000
  0.000   0.000   4.224   0.000   0.000  -0.005   0.000   0.000
  0.000   0.000   0.000   4.224   0.000   0.000  -0.005   0.000
  0.000   0.000   0.000   0.000   4.224   0.000   0.000  -0.005
  0.000   0.000  -0.005   0.000   0.000   0.005   0.000   0.000
  0.000   0.000   0.000  -0.005   0.000   0.000   0.005   0.000
  0.000   0.000   0.000   0.000  -0.005   0.000   0.000   0.005
 total augmentation occupancy for first ion, spin component:           1
  1.320  -1.088  -0.002   0.000   0.001   0.003   0.000  -0.002
 -1.088   1.013   0.001   0.000   0.000  -0.003   0.000   0.001
 -0.002   0.001   1.123   0.001   0.000  -0.801  -0.001   0.000
  0.000   0.000   0.001   1.124  -0.002  -0.001  -0.802   0.003
  0.001   0.000   0.000  -0.002   1.122   0.000   0.003  -0.800
  0.003  -0.003  -0.801  -0.001   0.000   0.648   0.001   0.000
  0.000   0.000  -0.001  -0.802   0.003   0.001   0.648  -0.003
 -0.002   0.001   0.000   0.003  -0.800   0.000  -0.003   0.647


----------------------------------------- Iteration    1(  10)  ---------------------------------------


    POTLOK:  cpu time    0.02: real time    0.02
    SETDIJ:  cpu time    0.02: real time    0.02
    EDDIAG:  cpu time    0.02: real time    0.02
  RMM-DIIS:  cpu time    0.02: real time    0.02
    ORTHCH:  cpu time    0.00: real time    0.01
       DOS:  cpu time    0.00: real time    0.00
    CHARGE:  cpu time    0.03: real time    0.03
    MIXING:  cpu time    0.00: real time    0.00
    --------------------------------------------
      LOOP:  cpu time    0.12: real time    0.12

 eigenvalue-minimisations  :   104
 total energy-change (2. order) :-0.1828858E-03  (-0.2403723E-04)
 number of electron      31.9999999 magnetization 
 augmentation part       -1.7273361 magnetization 

 Broyden mixing:
  rms(total) = 0.45865E-03    rms(broyden)= 0.45822E-03
  rms(prec ) = 0.91730E-03
  weight for this iteration     100.00

 eigenvalues of (default mixing * dielectric matrix)
  average eigenvalue GAMMA=   2.0379
  3.0947  2.6305  2.1669  0.9764  1.3211

 Free energy of the ion-electron system (eV)
  ---------------------------------------------------
  alpha Z        PSCENC =        12.68944982
  Ewald energy   TEWEN  =      -907.56703301
  -1/2 Hartree   DENC   =       -70.84840870
  -exchange  EXHF       =         0.00000000
  -V(xc)+E(xc)   XCENC  =       -72.90947050
  PAW double counting   =       307.80430694     -166.64820005
  entropy T*S    EENTRO =         0.00000000
  eigenvalues    EBANDS =        37.88039810
  atomic energy  EATOM  =       826.37398168
  ---------------------------------------------------
  free energy    TOTEN  =       -33.22497573 eV

  energy without entropy =      -33.22497573  energy(sigma->0) =      -33.22497573


--------------------------------------------------------------------------------------------------------




 average (electrostatic) potential at core
  the test charge radii are     0.9892
  (the norm of the test charge is              1.0000)
       1 -83.2265       2 -83.2248       3 -83.2236       4 -83.2249       5 -83.2251
       6 -83.2252       7 -83.2270       8 -83.2272
 
 
 
 E-fermi :   6.0566     XC(G=0):  -9.1307     alpha+bet :-11.7379


 k-point   1 :       0.0000    0.0000    0.0000
  band No.  band energies     occupation 
      1      -5.9495      2.00000
      2      -1.8782      2.00000
      3      -1.8672      2.00000
      4      -1.8661      2.00000
      5      -1.8625      2.00000
      6      -1.8590      2.00000
      7      -1.8533      2.00000
      8       3.0456      2.00000
      9       3.0495      2.00000
     10       3.0507      2.00000
     11       3.0518      2.00000
     12       3.0538      2.00000
     13       3.0562      2.00000
     14       5.9162      2.00000
     15       5.9214      2.00000
     16       5.9306      2.00000
     17       6.5875      0.00000
     18       6.5926      0.00000
     19       6.5946      0.00000
     20       6.5984      0.00000
     21       6.6011      0.00000
     22       6.6032      0.00000
     23       8.3752      0.00000
     24       8.3808      0.00000
     25       8.3838      0.00000
     26       9.0563      0.00000
     27      13.6117      0.00000
     28      13.6117      0.00000
     29      13.8266      0.00000
     30      15.8196      0.00000
     31      15.8265      0.00000
     32      15.8287      0.00000
     33      15.8289      0.00000
     34      15.8303      0.00000
     35      15.8374      0.00000
     36      16.9496      0.00000
     37      16.9549      0.00000
     38      16.9572      0.00000
     39      16.9749      0.00000
     40      16.9833      0.00000
     41      16.9843      0.00000
     42      16.9868      0.00000
     43      16.9916      0.00000
     44      16.9996      0.00000
     45      18.7152      0.00000
     46      18.7287      0.00000
     47      18.7361      0.00000
     48      18.7416      0.00000


--------------------------------------------------------------------------------------------------------


 soft charge-density along one line, spin component           1
         0         1         2         3         4         5         6         7         8         9
 total charge-density along one line
 
 pseudopotential strength for first ion, spin component:           1
 18.597  -0.001   0.000   0.000   0.000   0.000   0.000   0.000
 -0.001   0.006   0.000   0.000   0.000   0.000   0.000   0.000
  0.000   0.000   4.224   0.000   0.000  -0.005   0.000   0.000
  0.000   0.000   0.000   4.224   0.000   0.000  -0.005   0.000
  0.000   0.000   0.000   0.000   4.224   0.000   0.000  -0.005
  0.000   0.000  -0.005   0.000   0.000   0.005   0.000   0.000
  0.000   0.000   0.000  -0.005   0.000   0.000   0.005   0.000
  0.000   0.000   0.000   0.000  -0.005   0.000   0.000   0.005
 total augmentation occupancy for first ion, spin component:           1
  1.320  -1.088  -0.002   0.000   0.001   0.003   0.000  -0.001
 -1.088   1.013   0.001   0.000   0.000  -0.003   0.000   0.001
 -0.002   0.001   1.123   0.001   0.000  -0.802  -0.001   0.000
  0.000   0.000   0.001   1.124  -0.002  -0.001  -0.802   0.003
  0.001   0.000   0.000  -0.002   1.121   0.000   0.003  -0.800
  0.003  -0.003  -0.802  -0.001   0.000   0.648   0.001   0.000
  0.000   0.000  -0.001  -0.802   0.003   0.001   0.649  -0.003
 -0.001   0.001   0.000   0.003  -0.800   0.000  -0.003   0.647


----------------------------------------- Iteration    1(  11)  ---------------------------------------


    POTLOK:  cpu time    0.02: real time    0.02
    SETDIJ:  cpu time    0.02: real time    0.02
    EDDIAG:  cpu time    0.02: real time    0.02
  RMM-DIIS:  cpu time    0.05: real time    0.05
    ORTHCH:  cpu time    0.00: real time    0.01
       DOS:  cpu time    0.00: real time    0.00
    CHARGE:  cpu time    0.02: real time    0.02
    MIXING:  cpu time    0.00: real time    0.00
    --------------------------------------------
      LOOP:  cpu time    0.14: real time    0.14

 eigenvalue-minimisations  :   114
 total energy-change (2. order) : 0.4419353E-05  (-0.3328649E-06)
 number of electron      31.9999999 magnetization 
 augmentation part       -1.7274367 magnetization 

 Broyden mixing:
  rms(total) = 0.15996E-03    rms(broyden)= 0.15991E-03
  rms(prec ) = 0.31396E-03
  weight for this iteration     100.00

 eigenvalues of (default mixing * dielectric matrix)
  average eigenvalue GAMMA=   1.9619
  3.2082  2.7035  2.1605  1.7546  0.9722  0.9722

 Free energy of the ion-electron system (eV)
  ---------------------------------------------------
  alpha Z        PSCENC =        12.68944982
  Ewald energy   TEWEN  =      -907.56703301
  -1/2 Hartree   DENC   =       -70.82881369
  -exchange  EXHF       =         0.00000000
  -V(xc)+E(xc)   XCENC  =       -72.91078220
  PAW double counting   =       307.73448489     -166.57565055
  entropy T*S    EENTRO =         0.00000000
  eigenvalues    EBANDS =        37.85939175
  atomic energy  EATOM  =       826.37398168
  ---------------------------------------------------
  free energy    TOTEN  =       -33.22497131 eV

  energy without entropy =      -33.22497131  energy(sigma->0) =      -33.22497131


--------------------------------------------------------------------------------------------------------




 average (electrostatic) potential at core
  the test charge radii are     0.9892
  (the norm of the test charge is              1.0000)
       1 -83.2288       2 -83.2268       3 -83.2254       4 -83.2269       5 -83.2272
       6 -83.2273       7 -83.2295       8 -83.2298
 
 
 
 E-fermi :   6.0559     XC(G=0):  -9.1314     alpha+bet :-11.7379


 k-point   1 :       0.0000    0.0000    0.0000
  band No.  band energies     occupation 
      1      -5.9501      2.00000
      2      -1.8790      2.00000
      3      -1.8679      2.00000
      4      -1.8668      2.00000
      5      -1.8632      2.00000
      6      -1.8596      2.00000
      7      -1.8538      2.00000
      8       3.0449      2.00000
      9       3.0489      2.00000
     10       3.0501      2.00000
     11       3.0512      2.00000
     12       3.0533      2.00000
     13       3.0557      2.00000
     14       5.9155      2.00000
     15       5.9206      2.00000
     16       5.9299      2.00000
     17       6.5868      0.00000
     18       6.5919      0.00000
     19       6.5939      0.00000
     20       6.5977      0.00000
     21       6.6004      0.00000
     22       6.6024      0.00000
     23       8.3748      0.00000
     24       8.3803      0.00000
     25       8.3834      0.00000
     26       9.0553      0.00000
     27      13.6114      0.00000
     28      13.6115      0.00000
     29      13.8250      0.00000
     30      15.8188      0.00000
     31      15.8258      0.00000
     32      15.8281      0.00000
     33      15.8281      0.00000
     34      15.8296      0.00000
     35      15.8368      0.00000
     36      16.9491      0.00000
     37      16.9544      0.00000
     38      16.9567      0.00000
     39      16.9742      0.00000
     40      16.9826      0.00000
     41      16.9837      0.00000
     42      16.9861      0.00000
     43      16.9910      0.00000
     44      16.9990      0.00000
     45      18.7158      0.00000
     46      18.7292      0.00000
     47      18.7354      0.00000
     48      18.7410      0.00000


--------------------------------------------------------------------------------------------------------


 soft charge-density along one line, spin component           1
         0         1         2         3         4         5         6         7         8         9
 total charge-density along one line
 
 pseudopotential strength for first ion, spin component:           1
 18.597  -0.001   0.000   0.000   0.000   0.000   0.000   0.000
 -0.001   0.006   0.000   0.000   0.000   0.000   0.000   0.000
  0.000   0.000   4.224   0.000   0.000  -0.005   0.000   0.000
  0.000   0.000   0.000   4.224   0.000   0.000  -0.005   0.000
  0.000   0.000   0.000   0.000   4.224   0.000   0.000  -0.005
  0.000   0.000  -0.005   0.000   0.000   0.005   0.000   0.000
  0.000   0.000   0.000  -0.005   0.000   0.000   0.005   0.000
  0.000   0.000   0.000   0.000  -0.005   0.000   0.000   0.005
 total augmentation occupancy for first ion, spin component:           1
  1.320  -1.087  -0.002   0.000   0.001   0.003   0.000  -0.002
 -1.087   1.013   0.001   0.000   0.000  -0.003   0.000   0.001
 -0.002   0.001   1.123   0.001   0.000  -0.802  -0.001   0.000
  0.000   0.000   0.001   1.124  -0.002  -0.001  -0.802   0.003
  0.001   0.000   0.000  -0.002   1.121   0.000   0.003  -0.800
  0.003  -0.003  -0.802  -0.001   0.000   0.648   0.001   0.000
  0.000   0.000  -0.001  -0.802   0.003   0.001   0.649  -0.003
 -0.002   0.001   0.000   0.003  -0.800   0.000  -0.003   0.647


----------------------------------------- Iteration    1(  12)  ---------------------------------------


    POTLOK:  cpu time    0.02: real time    0.02
    SETDIJ:  cpu time    0.02: real time    0.02
    EDDIAG:  cpu time    0.02: real time    0.02
  RMM-DIIS:  cpu time    0.05: real time    0.05
    ORTHCH:  cpu time    0.01: real time    0.01
       DOS:  cpu time    0.00: real time    0.00
    CHARGE:  cpu time    0.02: real time    0.02
    MIXING:  cpu time    0.00: real time    0.00
    --------------------------------------------
      LOOP:  cpu time    0.14: real time    0.15

 eigenvalue-minimisations  :   126
 total energy-change (2. order) :-0.7053515E-06  (-0.5777233E-07)
 number of electron      31.9999999 magnetization 
 augmentation part       -1.7274230 magnetization 

 Broyden mixing:
  rms(total) = 0.62472E-04    rms(broyden)= 0.62442E-04
  rms(prec ) = 0.87794E-04
  weight for this iteration     100.00

 eigenvalues of (default mixing * dielectric matrix)
  average eigenvalue GAMMA=   2.0055
  3.2045  2.7446  2.5070  2.0956  1.5286  0.9932  0.9652

 Free energy of the ion-electron system (eV)
  ---------------------------------------------------
  alpha Z        PSCENC =        12.68944982
  Ewald energy   TEWEN  =      -907.56703301
  -1/2 Hartree   DENC   =       -70.83342040
  -exchange  EXHF       =         0.00000000
  -V(xc)+E(xc)   XCENC  =       -72.91070592
  PAW double counting   =       307.74262509     -166.58401757
  entropy T*S    EENTRO =         0.00000000
  eigenvalues    EBANDS =        37.86414830
  atomic energy  EATOM  =       826.37398168
  ---------------------------------------------------
  free energy    TOTEN  =       -33.22497201 eV

  energy without entropy =      -33.22497201  energy(sigma->0) =      -33.22497201


--------------------------------------------------------------------------------------------------------




 average (electrostatic) potential at core
  the test charge radii are     0.9892
  (the norm of the test charge is              1.0000)
       1 -83.2283       2 -83.2263       3 -83.2248       4 -83.2263       5 -83.2266
       6 -83.2268       7 -83.2290       8 -83.2293
 
 
 
 E-fermi :   6.0563     XC(G=0):  -9.1311     alpha+bet :-11.7379


 k-point   1 :       0.0000    0.0000    0.0000
  band No.  band energies     occupation 
      1      -5.9500      2.00000
      2      -1.8789      2.00000
      3      -1.8678      2.00000
      4      -1.8666      2.00000
      5      -1.8630      2.00000
      6      -1.8595      2.00000
      7      -1.8536      2.00000
      8       3.0450      2.00000
      9       3.0491      2.00000
     10       3.0502      2.00000
     11       3.0514      2.00000
     12       3.0534      2.00000
[...]
    LRDIIS:  cpu time    0.02: real time    0.02
    LRDIAG:  cpu time    0.01: real time    0.01
    MIXING:  cpu time    0.00: real time    0.00
    --------------------------------------------
      LOOP:  cpu time    0.15: real time    0.16

 Broyden mixing:
  rms(total) = 0.13858E-01    rms(broyden)= 0.13856E-01
  rms(prec ) = 0.24055E-01
  weight for this iteration     100.00

 eigenvalues of (default mixing * dielectric matrix)
  average eigenvalue GAMMA=   1.9054
  2.5431  1.2978  1.8753

 Free energy of the ion-electron system (eV)
  ---------------------------------------------------
  -1/2 Hartree   DENC   =        -4.57224402
  -V(xc)+E(xc)   XCENC  =         0.93474494
  PAW double counting   =         3.10152108       -3.15085521
  entropy T*S    EENTRO =         0.00000000
  eigenvalues    EBANDS =       -24.49183012
  ---------------------------------------------------
  free energy    TOTEN  =       -28.17866334 eV

  energy without entropy =      -28.17866334


----------------------------------------- Iteration    3(   6)  ---------------------------------------


   POT+DIJ:  cpu time    0.07: real time    0.08
    HAMIL1:  cpu time    0.00: real time    0.01
    LRDIAG:  cpu time    0.01: real time    0.01
    LRDIIS:  cpu time    0.02: real time    0.02
    LRDIAG:  cpu time    0.01: real time    0.01
    MIXING:  cpu time    0.01: real time    0.01
    --------------------------------------------
      LOOP:  cpu time    0.16: real time    0.16

 Broyden mixing:
  rms(total) = 0.71389E-02    rms(broyden)= 0.71385E-02
  rms(prec ) = 0.12261E-01
  weight for this iteration     100.00

 eigenvalues of (default mixing * dielectric matrix)
  average eigenvalue GAMMA=   2.0732
  3.0305  2.4833  1.1234  1.6557

 Free energy of the ion-electron system (eV)
  ---------------------------------------------------
  -1/2 Hartree   DENC   =        -4.61433973
  -V(xc)+E(xc)   XCENC  =         0.94948195
  PAW double counting   =         3.10227438       -3.15166800
  entropy T*S    EENTRO =         0.00000000
  eigenvalues    EBANDS =       -24.52637160
  ---------------------------------------------------
  free energy    TOTEN  =       -28.24062299 eV

  energy without entropy =      -28.24062299


----------------------------------------- Iteration    3(   7)  ---------------------------------------


   POT+DIJ:  cpu time    0.07: real time    0.08
    HAMIL1:  cpu time    0.01: real time    0.01
    LRDIAG:  cpu time    0.01: real time    0.01
    LRDIIS:  cpu time    0.02: real time    0.02
    LRDIAG:  cpu time    0.01: real time    0.01
    MIXING:  cpu time    0.00: real time    0.00
    --------------------------------------------
      LOOP:  cpu time    0.15: real time    0.15

 Broyden mixing:
  rms(total) = 0.53279E-03    rms(broyden)= 0.53189E-03
  rms(prec ) = 0.10012E-02
  weight for this iteration     100.00

 eigenvalues of (default mixing * dielectric matrix)
  average eigenvalue GAMMA=   1.9627
  3.0927  2.4108  1.1169  1.6766  1.5168

 Free energy of the ion-electron system (eV)
  ---------------------------------------------------
  -1/2 Hartree   DENC   =        -4.62670067
  -V(xc)+E(xc)   XCENC  =         0.95734667
  PAW double counting   =         3.06499066       -3.11382498
  entropy T*S    EENTRO =         0.00000000
  eigenvalues    EBANDS =       -24.56296937
  ---------------------------------------------------
  free energy    TOTEN  =       -28.28115769 eV

  energy without entropy =      -28.28115769


----------------------------------------- Iteration    3(   8)  ---------------------------------------


   POT+DIJ:  cpu time    0.08: real time    0.08
    HAMIL1:  cpu time    0.01: real time    0.01
    LRDIAG:  cpu time    0.01: real time    0.01
    LRDIIS:  cpu time    0.02: real time    0.02
    LRDIAG:  cpu time    0.01: real time    0.01
    MIXING:  cpu time    0.00: real time    0.00
    --------------------------------------------
      LOOP:  cpu time    0.15: real time    0.15

 Broyden mixing:
  rms(total) = 0.27860E-03    rms(broyden)= 0.27853E-03
  rms(prec ) = 0.41099E-03
  weight for this iteration     100.00

 eigenvalues of (default mixing * dielectric matrix)
  average eigenvalue GAMMA=   1.9087
  3.0897  2.4584  2.0827  1.6625  1.0326  1.1266

 Free energy of the ion-electron system (eV)
  ---------------------------------------------------
  -1/2 Hartree   DENC   =        -4.63008149
  -V(xc)+E(xc)   XCENC  =         0.95823589
  PAW double counting   =         3.06870202       -3.11759858
  entropy T*S    EENTRO =         0.00000000
  eigenvalues    EBANDS =       -24.56397991
  ---------------------------------------------------
  free energy    TOTEN  =       -28.28472208 eV

  energy without entropy =      -28.28472208


----------------------------------------- Iteration    3(   9)  ---------------------------------------


   POT+DIJ:  cpu time    0.08: real time    0.08
    HAMIL1:  cpu time    0.01: real time    0.01
    LRDIAG:  cpu time    0.01: real time    0.01
    LRDIIS:  cpu time    0.02: real time    0.02
    LRDIAG:  cpu time    0.01: real time    0.01
    MIXING:  cpu time    0.00: real time    0.00
    --------------------------------------------
      LOOP:  cpu time    0.15: real time    0.16

 Broyden mixing:
  rms(total) = 0.10087E-03    rms(broyden)= 0.10085E-03
  rms(prec ) = 0.15375E-03
  weight for this iteration     100.00

 eigenvalues of (default mixing * dielectric matrix)
  average eigenvalue GAMMA=   1.8908
  3.1745  2.7264  2.4056  1.6748  1.2513  1.1023  0.9008

 Free energy of the ion-electron system (eV)
  ---------------------------------------------------
  -1/2 Hartree   DENC   =        -4.62981171
  -V(xc)+E(xc)   XCENC  =         0.95818181
  PAW double counting   =         3.07092841       -3.11986333
  entropy T*S    EENTRO =         0.00000000
  eigenvalues    EBANDS =       -24.56423017
  ---------------------------------------------------
  free energy    TOTEN  =       -28.28479498 eV

  energy without entropy =      -28.28479498


----------------------------------------- Iteration    3(  10)  ---------------------------------------


   POT+DIJ:  cpu time    0.07: real time    0.08
    HAMIL1:  cpu time    0.00: real time    0.01
    LRDIAG:  cpu time    0.01: real time    0.01
    LRDIIS:  cpu time    0.02: real time    0.02
    LRDIAG:  cpu time    0.01: real time    0.01
    MIXING:  cpu time    0.00: real time    0.00
    --------------------------------------------
      LOOP:  cpu time    0.15: real time    0.15

 Broyden mixing:
  rms(total) = 0.15840E-04    rms(broyden)= 0.15831E-04
  rms(prec ) = 0.25594E-04
  weight for this iteration     100.00

 eigenvalues of (default mixing * dielectric matrix)
  average eigenvalue GAMMA=   1.8328
  3.1947  2.7698  2.4445  1.6716  1.4274  0.9913  1.0503  1.1124

 Free energy of the ion-electron system (eV)
  ---------------------------------------------------
  -1/2 Hartree   DENC   =        -4.62988487
  -V(xc)+E(xc)   XCENC  =         0.95822217
  PAW double counting   =         3.07199932       -3.12095294
  entropy T*S    EENTRO =         0.00000000
  eigenvalues    EBANDS =       -24.56448578
  ---------------------------------------------------
  free energy    TOTEN  =       -28.28510210 eV

  energy without entropy =      -28.28510210


----------------------------------------- Iteration    3(  11)  ---------------------------------------


   POT+DIJ:  cpu time    0.07: real time    0.08
    HAMIL1:  cpu time    0.00: real time    0.00
    LRDIAG:  cpu time    0.01: real time    0.01
    LRDIIS:  cpu time    0.02: real time    0.02
    LRDIAG:  cpu time    0.01: real time    0.01
    MIXING:  cpu time    0.00: real time    0.00
    --------------------------------------------
      LOOP:  cpu time    0.15: real time    0.15

 Broyden mixing:
  rms(total) = 0.37767E-05    rms(broyden)= 0.37742E-05
  rms(prec ) = 0.52734E-05
  weight for this iteration     100.00

 eigenvalues of (default mixing * dielectric matrix)
  average eigenvalue GAMMA=   1.8966
  3.2026  2.8014  2.4271  2.4271  1.6725  1.4219  1.1081  1.0004  1.0088

 Free energy of the ion-electron system (eV)
  ---------------------------------------------------
  -1/2 Hartree   DENC   =        -4.62989022
  -V(xc)+E(xc)   XCENC  =         0.95821858
  PAW double counting   =         3.07210005       -3.12105534
  entropy T*S    EENTRO =         0.00000000
  eigenvalues    EBANDS =       -24.56446882
  ---------------------------------------------------
  free energy    TOTEN  =       -28.28509574 eV

  energy without entropy =      -28.28509574


----------------------------------------- Iteration    3(  12)  ---------------------------------------


   POT+DIJ:  cpu time    0.07: real time    0.08
    HAMIL1:  cpu time    0.00: real time    0.01
    LRDIAG:  cpu time    0.01: real time    0.01
    LRDIIS:  cpu time    0.02: real time    0.02
    LRDIAG:  cpu time    0.01: real time    0.01
    MIXING:  cpu time    0.00: real time    0.00
    --------------------------------------------
      LOOP:  cpu time    0.15: real time    0.15

 Broyden mixing:
  rms(total) = 0.87856E-06    rms(broyden)= 0.87810E-06
  rms(prec ) = 0.14159E-05
  weight for this iteration     100.00

 eigenvalues of (default mixing * dielectric matrix)
  average eigenvalue GAMMA=   1.8344
  3.2050  2.8062  2.5110  2.4454  1.6713  1.2913  1.2913  1.1067  1.0082  1.0082

 Free energy of the ion-electron system (eV)
  ---------------------------------------------------
  -1/2 Hartree   DENC   =        -4.62989133
  -V(xc)+E(xc)   XCENC  =         0.95821844
  PAW double counting   =         3.07201404       -3.12096788
  entropy T*S    EENTRO =         0.00000000
  eigenvalues    EBANDS =       -24.56446949
  ---------------------------------------------------
  free energy    TOTEN  =       -28.28509621 eV

  energy without entropy =      -28.28509621


------------------------ aborting loop because EDIFF is reached ----------------------------------------


 change of polarisation eV/A/(eV/A) component  3 :     0.144    -0.102    50.530
 dielectric tensor                  component  3 :     0.159    -0.112    56.867


--------------------------------------------------------------------------------------------------------


    FORLOC:  cpu time    0.00: real time    0.00
    FORNL :  cpu time    0.09: real time    0.10
    STRESS:  cpu time    0.28: real time    0.28
    FORCOR:  cpu time    0.02: real time    0.02
    FORLOC:  cpu time    0.00: real time    0.00
    FORNL :  cpu time    0.09: real time    0.09
    STRESS:  cpu time    0.28: real time    0.28
    FORCOR:  cpu time    0.02: real time    0.02
    FORNLD:  cpu time    0.01: real time    0.01

 PIEZOELECTRIC TENSOR FIELD DIRECTION 3  (e Angst)
 -----------------------------------------------------------------------------
    -0.00627  0.00064  0.00106           ( -0.00002 -0.00003  0.00002)
     0.00064  0.00007 -0.00714           ( -0.00003  0.00000  0.00000)
     0.00106 -0.00714  0.00229           (  0.00002  0.00000  0.00001)

 PIEZOELECTRIC TENSOR FIELD DIRECTION 3  (C/m^2)
 -----------------------------------------------------------------------------
    -0.00061  0.00006  0.00010
     0.00006  0.00001 -0.00070
     0.00010 -0.00070  0.00022


      POSITION         DIRECTION 3           BORN EFFECTIVE CHARGE    (rigid.aug.   ionic)
 -----------------------------------------------------------------------------------------
      5.46895      5.46641      5.46772     0.18506  0.00227 -5.76745 (  0.21594  4.00000)
      1.36391      1.36522      1.36823     0.03094 -0.02792 -5.80560 (  0.21592  4.00000)
      2.73272      2.73573      5.46856    -0.17325  0.02227 -5.82007 (  0.21591  4.00000)
      4.10323      4.10106      1.36556     0.02733  0.01257 -5.80370 (  0.21592  4.00000)
      2.73356      5.46806      2.73485    -0.19552 -0.01770 -5.77703 (  0.21592  4.00000)
      4.10056      1.36735      4.09893    -0.03888 -0.00291 -5.77367 (  0.21593  4.00000)
      5.46985      2.73143      2.73511     0.16314  0.00379 -5.74089 (  0.21594  4.00000)
      1.36393      4.10261      4.10233    -0.03406  0.02961 -5.72729 (  0.21595  4.00000)
 -----------------------------------------------------------------------------------------
    total drift (improves with k-points):  -0.03524  0.02199-46.21569




--------------------------------------------------------------------------------------------------------


  LATTYP: Found a simple cubic cell.
 ALAT       =     5.4700000000
  
  Lattice vectors:
  
 A1 = (   5.4700000000,   0.0000000000,   0.0000000000)
 A2 = (   0.0000000000,   5.4700000000,   0.0000000000)
 A3 = (   0.0000000000,   0.0000000000,   5.4700000000)


Analysis of symmetry for initial positions (statically):
=====================================================================
 Subroutine PRICEL returns:
 Original cell was already a primitive cell.
 

 Routine SETGRP: Setting up the symmetry group for a 
 simple cubic supercell.


 Subroutine GETGRP returns: Found  1 space group operations
 (whereof  1 operations were pure point group operations)
 out of a pool of 48 trial point group operations.


The static configuration has the point symmetry C_1 .


Analysis of symmetry for dynamics (positions and initial velocities):
=====================================================================
 Subroutine PRICEL returns:
 Original cell was already a primitive cell.
 

 Routine SETGRP: Setting up the symmetry group for a 
 simple cubic supercell.


 Subroutine GETGRP returns: Found  1 space group operations
 (whereof  1 operations were pure point group operations)
 out of a pool of 48 trial point group operations.


The dynamic configuration has the point symmetry C_1 .


 MACROSCOPIC STATIC DIELECTRIC TENSOR (including local field effects in DFT)
 ------------------------------------------------------
          56.855612    -0.037575     0.159388
          -0.037580    56.866494    -0.112376
           0.159390    -0.112378    56.867200
 ------------------------------------------------------



--------------------------------------------------------------------------------------------------------


  LATTYP: Found a simple cubic cell.
 ALAT       =     5.4700000000
  
  Lattice vectors:
  
 A1 = (   5.4700000000,   0.0000000000,   0.0000000000)
 A2 = (   0.0000000000,   5.4700000000,   0.0000000000)
 A3 = (   0.0000000000,   0.0000000000,   5.4700000000)


Analysis of symmetry for initial positions (statically):
=====================================================================
 Subroutine PRICEL returns:
 Original cell was already a primitive cell.
 

 Routine SETGRP: Setting up the symmetry group for a 
 simple cubic supercell.


 Subroutine GETGRP returns: Found  1 space group operations
 (whereof  1 operations were pure point group operations)
 out of a pool of 48 trial point group operations.


The static configuration has the point symmetry C_1 .


Analysis of symmetry for dynamics (positions and initial velocities):
=====================================================================
 Subroutine PRICEL returns:
 Original cell was already a primitive cell.
 

 Routine SETGRP: Setting up the symmetry group for a 
 simple cubic supercell.


 Subroutine GETGRP returns: Found  1 space group operations
 (whereof  1 operations were pure point group operations)
 out of a pool of 48 trial point group operations.


The dynamic configuration has the point symmetry C_1 .
 
 KPOINTS: Automatic mesh                          

Automatic generation of k-mesh.
Space group operators:
 irot       det(A)        alpha          n_x          n_y          n_z        tau_x        tau_y        tau_z
    1     1.000000     0.000001     1.000000     0.000000     0.000000     0.000000     0.000000     0.000000
 
 Subroutine IBZKPT returns following result:
 ===========================================
 
 Found      1 irreducible k-points:
 
 Following reciprocal coordinates:
            Coordinates               Weight
  0.000000  0.000000  0.000000      1.000000
 
 Following cartesian coordinates:
            Coordinates               Weight
  0.000000  0.000000  0.000000      1.000000
 


--------------------------------------------------------------------------------------------------------




 MACROSCOPIC STATIC DIELECTRIC TENSOR (including local field effects in DFT)
 ------------------------------------------------------
          56.855612    -0.037575     0.159388
          -0.037580    56.866494    -0.112376
           0.159390    -0.112378    56.867200
 ------------------------------------------------------


 PIEZOELECTRIC TENSOR  for field in x, y, z        (e  Angst)
          XX          YY          ZZ          XY          YZ          ZX
  --------------------------------------------------------------------------------
  x    -0.00394    -0.00226     0.00376     0.00051     0.00049     0.00078
  y     0.01456    -0.00367    -0.00511    -0.00121     0.00352    -0.00131
  z    -0.00627     0.00007     0.00229     0.00064    -0.00714     0.00106

 PIEZOELECTRIC TENSOR  for field in x, y, z        (C/m^2)
          XX          YY          ZZ          XY          YZ          ZX
  --------------------------------------------------------------------------------
  x    -0.00039    -0.00022     0.00037     0.00005     0.00005     0.00008
  y     0.00143    -0.00036    -0.00050    -0.00012     0.00034    -0.00013
  z    -0.00061     0.00001     0.00022     0.00006    -0.00070     0.00010
 
 BORN EFFECTIVE CHARGES (in e, cummulative output)
 -------------------------------------------------
 ion    1
    1    -5.73676    -0.02991    -0.12806
    2     0.01010    -5.75694    -0.02917
    3     0.18506     0.00227    -5.76745
 ion    2
    1    -5.78366    -0.14161    -0.02336
    2     0.18742    -5.80161     0.02018
    3     0.03094    -0.02792    -5.80560
 ion    3
    1    -5.83707     0.03043     0.13627
    2    -0.00835    -5.81845    -0.03883
    3    -0.17325     0.02227    -5.82007
 ion    4
    1    -5.79969     0.14270    -0.02981
    2    -0.18815    -5.78245    -0.02763
    3     0.02733     0.01257    -5.80370
 ion    5
    1    -5.80774    -0.02742     0.12080
    2     0.01055    -5.77829     0.04241
    3    -0.19552    -0.01770    -5.77703
 ion    6
    1    -5.79195     0.12655     0.01067
    2    -0.16995    -5.79408     0.03776
    3    -0.03888    -0.00291    -5.77367
 ion    7
    1    -5.72400     0.02808    -0.14184
    2    -0.00852    -5.75297     0.03504
    3     0.16314     0.00379    -5.74089
 ion    8
    1    -5.73137    -0.12196     0.02006
    2     0.17393    -5.73086    -0.01776
    3    -0.03406     0.02961    -5.72729


--------------------------------------------------------------------------------------------------------


     LOOP+:  cpu time   18.80: real time   19.25
    4ORBIT:  cpu time    0.00: real time    0.00

 total amount of memory used by VASP on root node    32224. kBytes
========================================================================

   base      :      30000. kBytes
   nonl-proj :        202. kBytes
   fftplans  :        782. kBytes
   grid      :       1198. kBytes
   one-center:         24. kBytes
   wavefun   :         18. kBytes
 
  
  
 General timing and accounting informations for this job:
 ========================================================
  
                  Total CPU time used (sec):       19.680
                            User time (sec):       15.493
                          System time (sec):        4.187
                         Elapsed time (sec):       21.561
  
                   Maximum memory used (kb):       74244.
                   Average memory used (kb):           0.
  
                          Minor page faults:       197007
                          Major page faults:            0
                 Voluntary context switches:         1437
