 vasp.5.3.3 18Dez12 (build Jan  9 2014 12:00:49) complex                        
  
 executed on             LinuxIFC date 2014.01.29  10:11:34
 running on   48 total cores
 distrk:  each k-point on   48 cores,    1 groups
 distr:  one band on NCORES_PER_BAND=   1 cores,   48 groups


--------------------------------------------------------------------------------------------------------


 INCAR:
 POTCAR:    PAW Si                                

 ----------------------------------------------------------------------------- 
|                                                                             |
|           W    W    AA    RRRRR   N    N  II  N    N   GGGG   !!!           |
|           W    W   A  A   R    R  NN   N  II  NN   N  G    G  !!!           |
|           W    W  A    A  R    R  N N  N  II  N N  N  G       !!!           |
|           W WW W  AAAAAA  RRRRR   N  N N  II  N  N N  G  GGG   !            |
|           WW  WW  A    A  R   R   N   NN  II  N   NN  G    G                |
|           W    W  A    A  R    R  N    N  II  N    N   GGGG   !!!           |
|                                                                             |
|      For optimal performance we recommend that you set                      |
|        NPAR = 4 - approx SQRT( number of cores)                             |
|      (number of cores/NPAR must be integer)                                 |
|      This setting will greatly improve the performance of VASP for DFT.     |
|      The default NPAR=number of cores might be grossly inefficient          |
|      on modern multi-core architectures or massively parallel machines.     |
|      Do your own testing.                                                   |
|      Unfortunately you need to use the default for hybrid, GW and RPA       |
|      calculations.                                                          |
|                                                                             |
 ----------------------------------------------------------------------------- 

 POTCAR:    PAW Si                                
   VRHFIN =Si: s2p2                                                             
   LEXCH  = 91                                                                  
   EATOM  =   103.3076 eV,    7.5929 Ry                                         
                                                                                
   TITEL  = PAW Si                                                              
   LULTRA =        F    use ultrasoft PP ?                                      
   IUNSCR =        1    unscreen: 0-lin 1-nonlin 2-no                           
   RPACOR =    1.500    partial core radius                                     
   POMASS =   28.085; ZVAL   =    4.000    mass and valenz                      
   RCORE  =    1.900    outmost cutoff radius                                   
   RWIGS  =    2.480; RWIGS  =    1.312    wigner-seitz radius (au A)           
   ENMAX  =  245.435; ENMIN  =  184.076 eV                                      
   ICORE  =        2    local potential                                         
   LCOR   =        T    correct aug charges                                     
   LPAW   =        T    paw PP                                                  
   EAUG   =  322.069                                                            
   DEXC   =    -.001                                                            
   RMAX   =    2.943    core radius for proj-oper                               
   RAUG   =    1.300    factor for augmentation sphere                          
   RDEP   =    1.993    core radius for depl-charge                             
   QCUT   =   -4.247; QGAM   =    8.494    optimization parameters              
                                                                                
   Description                                                                  
     l     E      TYP  RCUT    TYP  RCUT                                        
     0   .000     23  1.900                                                     
     0   .000     23  1.900                                                     
     1   .000     23  1.900                                                     
     1   .000     23  1.900                                                     
     2   .000      7  1.900                                                     
  local pseudopotential read in
  partial core-charges read in
  atomic valenz-charges read in
  non local Contribution for L=           0  read in
    real space projection operators read in
  non local Contribution for L=           0  read in
    real space projection operators read in
  non local Contribution for L=           1  read in
    real space projection operators read in
  non local Contribution for L=           1  read in
    real space projection operators read in
    PAW grid and wavefunctions read in
 
   number of l-projection  operators is LMAX  =           4
   number of lm-projection operators is LMMAX =           8
 
  PAW Si                                :
 energy of atom  1       EATOM= -103.3076
 kinetic energy error for atom=    0.0109 (will be added to EATOM!!)
 
 
 POSCAR: OUTCAR.0021.+1.out 1.0e-02              
  positions in cartesian coordinates
  No initial velocities read in
 exchange correlation table for  LEXCH =        7
   RHO(1)=    0.500       N(1)  =     2000
   RHO(2)=  100.500       N(2)  =     4000

 VTST: version 3.0c, (01/09/14)

 CHAIN: initializing optimizer
 
 OPT: Using VASP Dynamics algorithm
 CHAIN: Read ICHAIN            0
 
 POSCAR: OUTCAR.0021.+1.out 1.0e-02              
  positions in cartesian coordinates
  No initial velocities read in
 


--------------------------------------------------------------------------------------------------------


 ion  position               nearest neighbor table
   1  1.000  0.001  1.000-   6 2.36   2 2.37   4 2.37   8 2.37
   2  0.251  0.250  0.250-   5 2.37   3 2.37   1 2.37   7 2.37
   3  0.500  0.500  1.000-   8 2.36   6 2.37   2 2.37   4 2.37
   4  0.750  0.750  0.250-   7 2.37   3 2.37   1 2.37   5 2.37
   5  0.500  1.000  0.500-   8 2.36   2 2.37   4 2.37   6 2.37
   6  0.750  0.250  0.751-   1 2.36   3 2.37   5 2.37   7 2.37
   7  0.000  0.501  0.500-   4 2.37   8 2.37   2 2.37   6 2.37
   8  0.251  0.750  0.750-   3 2.36   5 2.36   7 2.37   1 2.37
 
  LATTYP: Found a simple cubic cell.
 ALAT       =     5.4700000000
  
  Lattice vectors:
  
 A1 = (   5.4700000000,   0.0000000000,   0.0000000000)
 A2 = (   0.0000000000,   5.4700000000,   0.0000000000)
 A3 = (   0.0000000000,   0.0000000000,   5.4700000000)


Analysis of symmetry for initial positions (statically):
=====================================================================
 Subroutine PRICEL returns:
 Original cell was already a primitive cell.
 

 Routine SETGRP: Setting up the symmetry group for a 
 simple cubic supercell.


 Subroutine GETGRP returns: Found  1 space group operations
 (whereof  1 operations were pure point group operations)
 out of a pool of 48 trial point group operations.


The static configuration has the point symmetry C_1 .


Analysis of symmetry for dynamics (positions and initial velocities):
=====================================================================
 Subroutine PRICEL returns:
 Original cell was already a primitive cell.
 

 Routine SETGRP: Setting up the symmetry group for a 
 simple cubic supercell.


 Subroutine GETGRP returns: Found  1 space group operations
 (whereof  1 operations were pure point group operations)
 out of a pool of 48 trial point group operations.


The dynamic configuration has the point symmetry C_1 .


 irot  :   1
 --------------------------------------------------------------------
 isymop:   1   0   0
           0   1   0
           0   0   1

 gtrans:     0.0000000     0.0000000     0.0000000

 ptrans:     0.0000000     0.0000000     0.0000000
 rotmap:
 (   1->   1)  (   2->   2)  (   3->   3)  (   4->   4)  (   5->   5) 
 (   6->   6)  (   7->   7)  (   8->   8) 
 
 
 KPOINTS: Automatic mesh                          

Automatic generation of k-mesh.
Space group operators:
 irot       det(A)        alpha          n_x          n_y          n_z        tau_x        tau_y        tau_z
    1     1.000000     0.000001     1.000000     0.000000     0.000000     0.000000     0.000000     0.000000
 
 Subroutine IBZKPT returns following result:
 ===========================================
 
 Found      1 irreducible k-points:
 
 Following reciprocal coordinates:
            Coordinates               Weight
  0.000000  0.000000  0.000000      1.000000
 
 Following cartesian coordinates:
            Coordinates               Weight
  0.000000  0.000000  0.000000      1.000000
 
 
 Subroutine IBZKPT_HF returns following result:
 ==============================================
 
 Found      1 k-points in 1st BZ
 the following      1 k-points will be used (e.g. in the exchange kernel)
 Following reciprocal coordinates:   # in IRBZ
  0.000000  0.000000  0.000000       1 t-inv F


--------------------------------------------------------------------------------------------------------




 Dimension of arrays:
   k-points           NKPTS =      1   k-points in BZ     NKDIM =      1   number of bands    NBANDS=     48
   number of dos      NEDOS =    301   number of ions     NIONS =      8
   non local maximal  LDIM  =      4   non local SUM 2l+1 LMDIM =      8
   total plane-waves  NPLWV =  21952
   max r-space proj   IRMAX =      1   max aug-charges    IRDMAX=  36071
   dimension x,y,z NGX =    28 NGY =   28 NGZ =   28
   dimension x,y,z NGXF=    56 NGYF=   56 NGZF=   56
   support grid    NGXF=   112 NGYF=  112 NGZF=  112
   ions per type =               8
 NGX,Y,Z   is equivalent  to a cutoff of   8.51,  8.51,  8.51 a.u.
 NGXF,Y,Z  is equivalent  to a cutoff of  17.02, 17.02, 17.02 a.u.


 I would recommend the setting:
   dimension x,y,z NGX =    19 NGY =   19 NGZ =   19
 SYSTEM =  NAPTHA04                                
 POSCAR =  OUTCAR.0021.+1.out 1.0e-02              

 Startparameter for this run:
   NWRITE =      3    write-flag & timer
   PREC   = normal    normal or accurate (medium, high low for compatibility)
   ISTART =      0    job   : 0-new  1-cont  2-samecut
   ICHARG =      2    charge: 1-file 2-atom 10-const
   ISPIN  =      1    spin polarized calculation?
   LNONCOLLINEAR =      F non collinear calculations
   LSORBIT =      F    spin-orbit coupling
   INIWAV =      1    electr: 0-lowe 1-rand  2-diag
   LASPH  =      F    aspherical Exc in radial PAW
   METAGGA=      F    non-selfconsistent MetaGGA calc.

 Electronic Relaxation 1
   ENCUT  =  200.0 eV  14.70 Ry    3.83 a.u.   6.31  6.31  6.31*2*pi/ulx,y,z
   ENINI  =  200.0     initial cutoff
   ENAUG  =  322.1 eV  augmentation charge cutoff
   NELM   =     60;   NELMIN=  2; NELMDL= -5     # of ELM steps 
   EDIFF  = 0.1E-07   stopping-criterion for ELM
   LREAL  =      F    real-space projection
   NLSPLINE    = F    spline interpolate recip. space projectors
   LCOMPAT=      F    compatible to vasp.4.4
   GGA_COMPAT  = T    GGA compatible to vasp.4.4-vasp.4.6
   LMAXPAW     = -100 max onsite density
   LMAXMIX     =    2 max onsite mixed and CHGCAR
   VOSKOWN=      0    Vosko Wilk Nusair interpolation
   ROPT   =    0.00000
 Ionic relaxation
   EDIFFG = 0.1E-06   stopping-criterion for IOM
   NSW    =      0    number of steps for IOM
   NBLOCK =      1;   KBLOCK =      1    inner block; outer block 
   IBRION =     -1    ionic relax: 0-MD 1-quasi-New 2-CG
   NFREE  =      0    steps in history (QN), initial steepest desc. (CG)
   ISIF   =      2    stress and relaxation
   IWAVPR =     10    prediction:  0-non 1-charg 2-wave 3-comb
   ISYM   =      2    0-nonsym 1-usesym 2-fastsym
   LCORR  =      T    Harris-Foulkes like correction to forces

   POTIM  = 0.5000    time-step for ionic-motion
   TEIN   =    0.0    initial temperature
   TEBEG  =    0.0;   TEEND  =   0.0 temperature during run
   SMASS  =  -3.00    Nose mass-parameter (am)
   estimated Nose-frequenzy (Omega)   =  0.10E-29 period in steps =****** mass=  -0.684E-27a.u.
   SCALEE = 1.0000    scale energy and forces
   NPACO  =    256;   APACO  = 16.0  distance and # of slots for P.C.
   PSTRESS=    0.0 pullay stress

  Mass of Ions in am
   POMASS =  28.09
  Ionic Valenz
   ZVAL   =   4.00
  Atomic Wigner-Seitz radii
   RWIGS  =  -1.00
  virtual crystal weights 
   VCA    =   1.00
   NELECT =      32.0000    total number of electrons
   NUPDOWN=      -1.0000    fix difference up-down

 DOS related values:
   EMIN   =  10.00;   EMAX   =-10.00  energy-range for DOS
   EFERMI =   0.00
   ISMEAR =     0;   SIGMA  =   0.02  broadening in eV -4-tet -1-fermi 0-gaus

 Electronic relaxation 2 (details)
   IALGO  =     68    algorithm
   LDIAG  =      T    sub-space diagonalisation (order eigenvalues)
   LSUBROT=      T    optimize rotation matrix (better conditioning)
   TURBO    =      0    0=normal 1=particle mesh
   IRESTART =      0    0=no restart 2=restart with 2 vectors
   NREBOOT  =      0    no. of reboots
   NMIN     =      0    reboot dimension
   EREF     =   0.00    reference energy to select bands
   IMIX   =      4    mixing-type and parameters
     AMIX     =   0.40;   BMIX     =  1.00
     AMIX_MAG =   1.60;   BMIX_MAG =  1.00
     AMIN     =   0.10
     WC   =   100.;   INIMIX=   1;  MIXPRE=   1;  MAXMIX= -45

 Intra band minimization:
   WEIMIN = 0.0000     energy-eigenvalue tresh-hold
   EBREAK =  0.52E-10  absolut break condition
   DEPER  =   0.30     relativ break condition  

   TIME   =   0.40     timestep for ELM

  volume/ion in A,a.u.               =      20.46       138.06
  Fermi-wavevector in a.u.,A,eV,Ry     =   0.950176  1.795573 12.283814  0.902835
  Thomas-Fermi vector in A             =   2.078528
 
 Write flags
   LWAVE  =      F    write WAVECAR
   LCHARG =      F    write CHGCAR
   LVTOT  =      F    write LOCPOT, total local potential
   LVHAR  =      F    write LOCPOT, Hartree potential only
   LELF   =      F    write electronic localiz. function (ELF)
   LORBIT =      0    0 simple, 1 ext, 2 COOP (PROOUT)


 Dipole corrections
   LMONO  =      F    monopole corrections only (constant potential shift)
   LDIPOL =      F    correct potential (dipole corrections)
   IDIPOL =      0    1-x, 2-y, 3-z, 4-all directions 
   EPSILON=  1.0000000 bulk dielectric constant

 Exchange correlation treatment:
   GGA     =    --    GGA type
   LEXCH   =     7    internal setting for exchange type
   VOSKOWN=      0    Vosko Wilk Nusair interpolation
   LHFCALC =     F    Hartree Fock is set to
   LHFONE  =     F    Hartree Fock one center treatment
   AEXX    =    0.0000 exact exchange contribution

 Linear response parameters
   LEPSILON=     T    determine dielectric tensor
   LRPA    =     F    only Hartree local field effects (RPA)
   LNABLA  =     F    use nabla operator in PAW spheres
   LVEL    =     F    velocity operator in full k-point grid
   LINTERFAST=   F  fast interpolation
   KINTER  =     0    interpolate to denser k-point grid
   CSHIFT  =0.1000    complex shift for real part using Kramers Kronig
   OMEGAMAX=  -1.0    maximum frequency
   DEG_THRESHOLD= 0.2000000E-02 threshold for treating states as degnerate
   RTIME   =    0.100 relaxation time in fs

 Orbital magnetization related:
   ORBITALMAG=     F  switch on orbital magnetization
   LCHIMAG   =     F  perturbation theory with respect to B field
   DQ        =  0.001000  dq finite difference perturbation B field



--------------------------------------------------------------------------------------------------------


 Static calculation
 charge density and potential will be updated during run
 non-spin polarized calculation
 RMM-DIIS sequential band-by-band and
  variant of blocked Davidson during initial phase
 perform sub-space diagonalisation
    before iterative eigenvector-optimisation
 modified Broyden-mixing scheme, WC =      100.0
 initial mixing is a Kerker type mixing with AMIX =  0.4000 and BMIX =      1.0000
 Hartree-type preconditioning will be used
 using additional bands           32
 reciprocal scheme for non local part
 use partial core corrections
 calculate Harris-corrections to forces 
   (improved forces if not selfconsistent)
 use gradient corrections 
 use of overlap-Matrix (Vanderbilt PP)
 Gauss-broadening in eV      SIGMA  =   0.02


--------------------------------------------------------------------------------------------------------


  energy-cutoff  :      200.00
  volume of cell :      163.67
      direct lattice vectors                 reciprocal lattice vectors
     5.470000000  0.000000000  0.000000000     0.182815356  0.000000000  0.000000000
     0.000000000  5.470000000  0.000000000     0.000000000  0.182815356  0.000000000
     0.000000000  0.000000000  5.470000000     0.000000000  0.000000000  0.182815356

  length of vectors
     5.470000000  5.470000000  5.470000000     0.182815356  0.182815356  0.182815356


 
 k-points in units of 2pi/SCALE and weight: Automatic mesh                          
   0.00000000  0.00000000  0.00000000       1.000
 
 k-points in reciprocal lattice and weights: Automatic mesh                          
   0.00000000  0.00000000  0.00000000       1.000
 
 position of ions in fractional coordinates (direct lattice) 
   0.99980487  0.00064943  0.99957491
   0.25064943  0.24957491  0.25013210
   0.49957491  0.50013210  0.99973140
   0.75013210  0.74973140  0.24964944
   0.49973140  0.99964944  0.50002795
   0.74964944  0.25002795  0.75065240
   0.00002795  0.50065240  0.49997935
   0.25065240  0.74997935  0.74996977
 
 position of ions in cartesian coordinates  (Angst):
   5.46893263  0.00355239  5.46767477
   1.37105239  1.36517477  1.36822260
   2.73267477  2.73572260  5.46853076
   4.10322260  4.10103076  1.36558244
   2.73353076  5.46808244  2.73515289
   4.10058244  1.36765289  4.10606862
   0.00015289  2.73856862  2.73488702
   1.37106862  4.10238702  4.10233463
 


--------------------------------------------------------------------------------------------------------


 k-point  1 :   0.0000 0.0000 0.0000  plane waves:    1021

 maximum and minimum number of plane-waves per node :      1021     1021

 maximum number of plane-waves:      1021
 maximum index in each direction: 
   IXMAX=    6   IYMAX=    6   IZMAX=    6
   IXMIN=   -6   IYMIN=   -6   IZMIN=   -6

 NGX is ok and might be reduce to  26
 NGY is ok and might be reduce to  26
 NGZ is ok and might be reduce to  26

 serial   3D FFT for wavefunctions
 parallel 3D FFT for charge:
    minimum data exchange during FFTs selected (reduces bandwidth)


 total amount of memory used by VASP on root node    32224. kBytes
========================================================================

   base      :      30000. kBytes
   nonl-proj :        202. kBytes
   fftplans  :        782. kBytes
   grid      :       1198. kBytes
   one-center:         24. kBytes
   wavefun   :         18. kBytes
 
 Broyden mixing: mesh for mixing (old mesh)
   NGX = 13   NGY = 13   NGZ = 13
  (NGX  = 56   NGY  = 56   NGZ  = 56)
  gives a total of   2197 points

 initial charge density was supplied:
 charge density of overlapping atoms calculated
 number of electron      32.0000000 magnetization 
 keeping initial charge density in first step


--------------------------------------------------------------------------------------------------------


 Maximum index for augmentation-charges         1783 (set IRDMAX)


--------------------------------------------------------------------------------------------------------


 First call to EWALD:  gamma=   0.324
 Maximum number of real-space cells 3x 3x 3
 Maximum number of reciprocal cells 3x 3x 3

 FEWALD executed in parallel
    FEWALD:  cpu time    0.00: real time    0.00


----------------------------------------- Iteration    1(   1)  ---------------------------------------


    POTLOK:  cpu time    0.03: real time    0.03
    SETDIJ:  cpu time    0.02: real time    0.02
     EDDAV:  cpu time    0.39: real time    0.40
       DOS:  cpu time    0.00: real time    0.00
    --------------------------------------------
      LOOP:  cpu time    0.45: real time    0.46

 eigenvalue-minimisations  :    96
 total energy-change (2. order) :-0.1016655E+02  (-0.7956336E+03)
 number of electron      32.0000000 magnetization 
 augmentation part       32.0000000 magnetization 

 Free energy of the ion-electron system (eV)
  ---------------------------------------------------
  alpha Z        PSCENC =        12.68944982
  Ewald energy   TEWEN  =      -907.56617266
  -1/2 Hartree   DENC   =       -45.63656251
  -exchange  EXHF       =         0.00000000
  -V(xc)+E(xc)   XCENC  =       -76.79670869
  PAW double counting   =       265.93453375     -123.69690146
  entropy T*S    EENTRO =        -0.00010301
  eigenvalues    EBANDS =        38.53193549
  atomic energy  EATOM  =       826.37398168
  ---------------------------------------------------
  free energy    TOTEN  =       -10.16654760 eV

  energy without entropy =      -10.16644458  energy(sigma->0) =      -10.16649609


--------------------------------------------------------------------------------------------------------




 average (electrostatic) potential at core
  the test charge radii are     0.9892
  (the norm of the test charge is              1.0000)
       1 -84.3492       2 -84.3490       3 -84.3563       4 -84.3487       5 -84.3526
       6 -84.3499       7 -84.3444       8 -84.3550
 
 
 
 E-fermi :   6.6075     XC(G=0):  -9.5533     alpha+bet :-11.7379


 k-point   1 :       0.0000    0.0000    0.0000
  band No.  band energies     occupation 
      1      -6.5896      2.00000
      2      -2.4125      2.00000
      3      -2.2468      2.00000
      4      -2.1163      2.00000
      5      -2.0333      2.00000
      6      -1.8765      2.00000
      7      -1.6806      2.00000
      8       2.7429      2.00000
      9       2.8492      2.00000
     10       2.9948      2.00000
     11       3.1600      2.00000
     12       3.3449      2.00000
     13       4.0799      2.00000
     14       6.1292      2.00000
     15       6.3597      2.00000
     16       6.5610      1.99897
     17       6.6539      0.00103
     18       6.8120      0.00000
     19       6.9046      0.00000
     20       7.1769      0.00000
     21       7.3843      0.00000
     22       8.0508      0.00000
     23       8.9834      0.00000
     24       9.3713      0.00000
     25      10.4546      0.00000
     26      11.4499      0.00000
     27      13.5068      0.00000
     28      14.7775      0.00000
     29      16.5563      0.00000
     30      16.8965      0.00000
     31      17.3611      0.00000
     32      17.5835      0.00000
     33      17.9255      0.00000
     34      18.1245      0.00000
     35      18.4993      0.00000
     36      18.8787      0.00000
     37      19.3711      0.00000
     38      19.5126      0.00000
     39      19.8695      0.00000
     40      20.2516      0.00000
     41      21.0916      0.00000
     42      21.6794      0.00000
     43      22.1798      0.00000
     44      22.7565      0.00000
     45      23.8955      0.00000
     46      24.4066      0.00000
     47      24.8246      0.00000
     48      25.8427      0.00000


--------------------------------------------------------------------------------------------------------


 soft charge-density along one line, spin component           1
         0         1         2         3         4         5         6         7         8         9
 total charge-density along one line
 
 pseudopotential strength for first ion, spin component:           1
 18.662   0.000   0.000   0.000   0.000   0.000   0.000   0.000
  0.000   0.006   0.000   0.000   0.000   0.000   0.000   0.000
  0.000   0.000   4.216   0.000   0.000  -0.004   0.000   0.000
  0.000   0.000   0.000   4.216   0.000   0.000  -0.004   0.000
  0.000   0.000   0.000   0.000   4.216   0.000   0.000  -0.004
  0.000   0.000  -0.004   0.000   0.000   0.005   0.000   0.000
  0.000   0.000   0.000  -0.004   0.000   0.000   0.005   0.000
  0.000   0.000   0.000   0.000  -0.004   0.000   0.000   0.005
 total augmentation occupancy for first ion, spin component:           1
  2.000   0.000   0.000   0.000   0.000   0.000   0.000   0.000
  0.000   0.000   0.000   0.000   0.000   0.000   0.000   0.000
  0.000   0.000   0.667   0.000   0.000   0.000   0.000   0.000
  0.000   0.000   0.000   0.667   0.000   0.000   0.000   0.000
  0.000   0.000   0.000   0.000   0.667   0.000   0.000   0.000
  0.000   0.000   0.000   0.000   0.000   0.000   0.000   0.000
  0.000   0.000   0.000   0.000   0.000   0.000   0.000   0.000
  0.000   0.000   0.000   0.000   0.000   0.000   0.000   0.000


----------------------------------------- Iteration    1(   2)  ---------------------------------------


     EDDAV:  cpu time    0.97: real time    0.97
       DOS:  cpu time    0.00: real time    0.00
    --------------------------------------------
      LOOP:  cpu time    0.97: real time    0.97

 eigenvalue-minimisations  :   144
 total energy-change (2. order) :-0.2428339E+02  (-0.2428242E+02)
 number of electron      32.0000000 magnetization 
 augmentation part       32.0000000 magnetization 

 Free energy of the ion-electron system (eV)
  ---------------------------------------------------
  alpha Z        PSCENC =        12.68944982
  Ewald energy   TEWEN  =      -907.56617266
  -1/2 Hartree   DENC   =       -45.63656251
  -exchange  EXHF       =         0.00000000
  -V(xc)+E(xc)   XCENC  =       -76.79670869
  PAW double counting   =       265.93453375     -123.69690146
  entropy T*S    EENTRO =         0.00000000
  eigenvalues    EBANDS =        14.24844661
  atomic energy  EATOM  =       826.37398168
  ---------------------------------------------------
  free energy    TOTEN  =       -34.44993346 eV

  energy without entropy =      -34.44993346  energy(sigma->0) =      -34.44993346


--------------------------------------------------------------------------------------------------------




 average (electrostatic) potential at core
  the test charge radii are     0.9892
  (the norm of the test charge is              1.0000)
       1 -84.3492       2 -84.3490       3 -84.3563       4 -84.3487       5 -84.3526
       6 -84.3499       7 -84.3444       8 -84.3550
 
 
 
 E-fermi :   5.2552     XC(G=0):  -9.5533     alpha+bet :-11.7379


 k-point   1 :       0.0000    0.0000    0.0000
  band No.  band energies     occupation 
      1      -6.6372      2.00000
      2      -2.6456      2.00000
      3      -2.6392      2.00000
      4      -2.6346      2.00000
      5      -2.6289      2.00000
      6      -2.6177      2.00000
      7      -2.6092      2.00000
      8       2.3734      2.00000
      9       2.3757      2.00000
     10       2.3789      2.00000
     11       2.3840      2.00000
     12       2.3861      2.00000
     13       2.3981      2.00000
     14       5.0518      2.00000
     15       5.0895      2.00000
     16       5.0990      2.00000
     17       6.1419      0.00000
     18       6.1488      0.00000
     19       6.1540      0.00000
     20       6.1588      0.00000
     21       6.1624      0.00000
     22       6.1737      0.00000
     23       7.8469      0.00000
     24       7.8543      0.00000
     25       7.8703      0.00000
     26       8.1266      0.00000
     27      13.2005      0.00000
     28      13.2621      0.00000
     29      13.2699      0.00000
     30      15.0989      0.00000
     31      15.1352      0.00000
     32      15.1764      0.00000
     33      15.2493      0.00000
     34      15.3106      0.00000
     35      15.6311      0.00000
     36      16.3762      0.00000
     37      16.4202      0.00000
     38      16.4605      0.00000
     39      16.5299      0.00000
     40      16.7183      0.00000
     41      16.7436      0.00000
     42      16.7739      0.00000
     43      16.8671      0.00000
     44      17.2231      0.00000
     45      17.9075      0.00000
     46      17.9438      0.00000
     47      17.9870      0.00000
     48      18.0295      0.00000


--------------------------------------------------------------------------------------------------------


 soft charge-density along one line, spin component           1
         0         1         2         3         4         5         6         7         8         9
 total charge-density along one line
 
 pseudopotential strength for first ion, spin component:           1
 18.662   0.000   0.000   0.000   0.000   0.000   0.000   0.000
  0.000   0.006   0.000   0.000   0.000   0.000   0.000   0.000
  0.000   0.000   4.216   0.000   0.000  -0.004   0.000   0.000
  0.000   0.000   0.000   4.216   0.000   0.000  -0.004   0.000
  0.000   0.000   0.000   0.000   4.216   0.000   0.000  -0.004
  0.000   0.000  -0.004   0.000   0.000   0.005   0.000   0.000
  0.000   0.000   0.000  -0.004   0.000   0.000   0.005   0.000
  0.000   0.000   0.000   0.000  -0.004   0.000   0.000   0.005
 total augmentation occupancy for first ion, spin component:           1
  2.000   0.000   0.000   0.000   0.000   0.000   0.000   0.000
  0.000   0.000   0.000   0.000   0.000   0.000   0.000   0.000
  0.000   0.000   0.667   0.000   0.000   0.000   0.000   0.000
  0.000   0.000   0.000   0.667   0.000   0.000   0.000   0.000
  0.000   0.000   0.000   0.000   0.667   0.000   0.000   0.000
  0.000   0.000   0.000   0.000   0.000   0.000   0.000   0.000
  0.000   0.000   0.000   0.000   0.000   0.000   0.000   0.000
  0.000   0.000   0.000   0.000   0.000   0.000   0.000   0.000


----------------------------------------- Iteration    1(   3)  ---------------------------------------


     EDDAV:  cpu time    0.38: real time    0.39
       DOS:  cpu time    0.00: real time    0.00
    --------------------------------------------
      LOOP:  cpu time    0.39: real time    0.39

 eigenvalue-minimisations  :    96
 total energy-change (2. order) :-0.1673211E+00  (-0.1673211E+00)
 number of electron      32.0000000 magnetization 
 augmentation part       32.0000000 magnetization 

 Free energy of the ion-electron system (eV)
  ---------------------------------------------------
  alpha Z        PSCENC =        12.68944982
  Ewald energy   TEWEN  =      -907.56617266
  -1/2 Hartree   DENC   =       -45.63656251
  -exchange  EXHF       =         0.00000000
  -V(xc)+E(xc)   XCENC  =       -76.79670869
  PAW double counting   =       265.93453375     -123.69690146
  entropy T*S    EENTRO =         0.00000000
  eigenvalues    EBANDS =        14.08112551
  atomic energy  EATOM  =       826.37398168
  ---------------------------------------------------
  free energy    TOTEN  =       -34.61725457 eV

  energy without entropy =      -34.61725457  energy(sigma->0) =      -34.61725457


--------------------------------------------------------------------------------------------------------




 average (electrostatic) potential at core
  the test charge radii are     0.9892
  (the norm of the test charge is              1.0000)
       1 -84.3492       2 -84.3490       3 -84.3563       4 -84.3487       5 -84.3526
       6 -84.3499       7 -84.3444       8 -84.3550
 
 
 
 E-fermi :   5.2240     XC(G=0):  -9.5533     alpha+bet :-11.7379


 k-point   1 :       0.0000    0.0000    0.0000
  band No.  band energies     occupation 
      1      -6.6372      2.00000
      2      -2.6484      2.00000
      3      -2.6416      2.00000
      4      -2.6366      2.00000
      5      -2.6308      2.00000
      6      -2.6195      2.00000
      7      -2.6114      2.00000
      8       2.3703      2.00000
      9       2.3727      2.00000
     10       2.3733      2.00000
     11       2.3790      2.00000
     12       2.3821      2.00000
     13       2.3885      2.00000
     14       5.0437      2.00000
     15       5.0744      2.00000
     16       5.0820      2.00000
     17       6.1397      0.00000
     18       6.1465      0.00000
     19       6.1501      0.00000
     20       6.1553      0.00000
     21       6.1578      0.00000
     22       6.1697      0.00000
     23       7.8410      0.00000
     24       7.8452      0.00000
     25       7.8624      0.00000
     26       8.1178      0.00000
     27      13.1845      0.00000
     28      13.1866      0.00000
     29      13.2693      0.00000
     30      15.0826      0.00000
     31      15.0913      0.00000
     32      15.0966      0.00000
     33      15.1112      0.00000
     34      15.1266      0.00000
     35      15.1763      0.00000
     36      16.3136      0.00000
     37      16.3316      0.00000
     38      16.3450      0.00000
     39      16.3600      0.00000
     40      16.4312      0.00000
     41      16.4846      0.00000
     42      16.7105      0.00000
     43      16.7216      0.00000
     44      16.8111      0.00000
     45      17.8785      0.00000
     46      17.8861      0.00000
     47      17.9198      0.00000
     48      17.9414      0.00000


--------------------------------------------------------------------------------------------------------


 soft charge-density along one line, spin component           1
         0         1         2         3         4         5         6         7         8         9
 total charge-density along one line
 
 pseudopotential strength for first ion, spin component:           1
 18.662   0.000   0.000   0.000   0.000   0.000   0.000   0.000
  0.000   0.006   0.000   0.000   0.000   0.000   0.000   0.000
  0.000   0.000   4.216   0.000   0.000  -0.004   0.000   0.000
  0.000   0.000   0.000   4.216   0.000   0.000  -0.004   0.000
  0.000   0.000   0.000   0.000   4.216   0.000   0.000  -0.004
  0.000   0.000  -0.004   0.000   0.000   0.005   0.000   0.000
  0.000   0.000   0.000  -0.004   0.000   0.000   0.005   0.000
  0.000   0.000   0.000   0.000  -0.004   0.000   0.000   0.005
 total augmentation occupancy for first ion, spin component:           1
  2.000   0.000   0.000   0.000   0.000   0.000   0.000   0.000
  0.000   0.000   0.000   0.000   0.000   0.000   0.000   0.000
  0.000   0.000   0.667   0.000   0.000   0.000   0.000   0.000
  0.000   0.000   0.000   0.667   0.000   0.000   0.000   0.000
  0.000   0.000   0.000   0.000   0.667   0.000   0.000   0.000
  0.000   0.000   0.000   0.000   0.000   0.000   0.000   0.000
  0.000   0.000   0.000   0.000   0.000   0.000   0.000   0.000
  0.000   0.000   0.000   0.000   0.000   0.000   0.000   0.000


----------------------------------------- Iteration    1(   4)  ---------------------------------------


     EDDAV:  cpu time    1.99: real time    1.99
       DOS:  cpu time    0.00: real time    0.00
    --------------------------------------------
      LOOP:  cpu time    1.99: real time    2.00

 eigenvalue-minimisations  :   192
 total energy-change (2. order) :-0.3546363E-03  (-0.3546363E-03)
 number of electron      32.0000000 magnetization 
 augmentation part       32.0000000 magnetization 

 Free energy of the ion-electron system (eV)
  ---------------------------------------------------
  alpha Z        PSCENC =        12.68944982
  Ewald energy   TEWEN  =      -907.56617266
  -1/2 Hartree   DENC   =       -45.63656251
  -exchange  EXHF       =         0.00000000
  -V(xc)+E(xc)   XCENC  =       -76.79670869
  PAW double counting   =       265.93453375     -123.69690146
  entropy T*S    EENTRO =         0.00000000
  eigenvalues    EBANDS =        14.08077087
  atomic energy  EATOM  =       826.37398168
  ---------------------------------------------------
  free energy    TOTEN  =       -34.61760920 eV

  energy without entropy =      -34.61760920  energy(sigma->0) =      -34.61760920


--------------------------------------------------------------------------------------------------------




 average (electrostatic) potential at core
  the test charge radii are     0.9892
  (the norm of the test charge is              1.0000)
       1 -84.3492       2 -84.3490       3 -84.3563       4 -84.3487       5 -84.3526
       6 -84.3499       7 -84.3444       8 -84.3550
 
 
 
 E-fermi :   5.2021     XC(G=0):  -9.5533     alpha+bet :-11.7379


 k-point   1 :       0.0000    0.0000    0.0000
  band No.  band energies     occupation 
      1      -6.6372      2.00000
      2      -2.6484      2.00000
      3      -2.6416      2.00000
      4      -2.6366      2.00000
      5      -2.6308      2.00000
      6      -2.6195      2.00000
      7      -2.6115      2.00000
      8       2.3703      2.00000
      9       2.3727      2.00000
     10       2.3733      2.00000
     11       2.3790      2.00000
     12       2.3821      2.00000
     13       2.3885      2.00000
     14       5.0437      2.00000
     15       5.0744      2.00000
     16       5.0819      2.00000
     17       6.1397      0.00000
     18       6.1465      0.00000
     19       6.1501      0.00000
     20       6.1553      0.00000
     21       6.1578      0.00000
     22       6.1697      0.00000
     23       7.8410      0.00000
     24       7.8451      0.00000
     25       7.8624      0.00000
     26       8.1178      0.00000
     27      13.1837      0.00000
     28      13.1838      0.00000
     29      13.2693      0.00000
     30      15.0732      0.00000
     31      15.0807      0.00000
     32      15.0833      0.00000
     33      15.0874      0.00000
     34      15.0905      0.00000
     35      15.0936      0.00000
     36      16.2943      0.00000
     37      16.3029      0.00000
     38      16.3060      0.00000
     39      16.3112      0.00000
     40      16.3184      0.00000
     41      16.3291      0.00000
     42      16.6951      0.00000
     43      16.6996      0.00000
     44      16.7185      0.00000
     45      17.8657      0.00000
     46      17.8716      0.00000
     47      17.8861      0.00000
     48      17.8960      0.00000


--------------------------------------------------------------------------------------------------------


 soft charge-density along one line, spin component           1
         0         1         2         3         4         5         6         7         8         9
 total charge-density along one line
 
 pseudopotential strength for first ion, spin component:           1
 18.662   0.000   0.000   0.000   0.000   0.000   0.000   0.000
  0.000   0.006   0.000   0.000   0.000   0.000   0.000   0.000
  0.000   0.000   4.216   0.000   0.000  -0.004   0.000   0.000
  0.000   0.000   0.000   4.216   0.000   0.000  -0.004   0.000
  0.000   0.000   0.000   0.000   4.216   0.000   0.000  -0.004
  0.000   0.000  -0.004   0.000   0.000   0.005   0.000   0.000
  0.000   0.000   0.000  -0.004   0.000   0.000   0.005   0.000
  0.000   0.000   0.000   0.000  -0.004   0.000   0.000   0.005
 total augmentation occupancy for first ion, spin component:           1
  2.000   0.000   0.000   0.000   0.000   0.000   0.000   0.000
  0.000   0.000   0.000   0.000   0.000   0.000   0.000   0.000
  0.000   0.000   0.667   0.000   0.000   0.000   0.000   0.000
  0.000   0.000   0.000   0.667   0.000   0.000   0.000   0.000
  0.000   0.000   0.000   0.000   0.667   0.000   0.000   0.000
  0.000   0.000   0.000   0.000   0.000   0.000   0.000   0.000
  0.000   0.000   0.000   0.000   0.000   0.000   0.000   0.000
  0.000   0.000   0.000   0.000   0.000   0.000   0.000   0.000


----------------------------------------- Iteration    1(   5)  ---------------------------------------


     EDDAV:  cpu time    0.38: real time    0.38
       DOS:  cpu time    0.00: real time    0.00
    CHARGE:  cpu time    0.02: real time    0.02
    MIXING:  cpu time    0.00: real time    0.00
    --------------------------------------------
      LOOP:  cpu time    0.41: real time    0.41

 eigenvalue-minimisations  :    96
 total energy-change (2. order) :-0.3059540E-08  (-0.3059193E-08)
 number of electron      31.9999999 magnetization 
 augmentation part       -1.8053367 magnetization 

 Broyden mixing:
  rms(total) = 0.79306E+00    rms(broyden)= 0.79301E+00
  rms(prec ) = 0.15229E+01
  weight for this iteration     100.00

 Free energy of the ion-electron system (eV)
  ---------------------------------------------------
  alpha Z        PSCENC =        12.68944982
  Ewald energy   TEWEN  =      -907.56617266
  -1/2 Hartree   DENC   =       -45.63656251
  -exchange  EXHF       =         0.00000000
  -V(xc)+E(xc)   XCENC  =       -76.79670869
  PAW double counting   =       265.93453375     -123.69690146
  entropy T*S    EENTRO =         0.00000000
  eigenvalues    EBANDS =        14.08077087
  atomic energy  EATOM  =       826.37398168
  ---------------------------------------------------
  free energy    TOTEN  =       -34.61760921 eV

  energy without entropy =      -34.61760921  energy(sigma->0) =      -34.61760921


--------------------------------------------------------------------------------------------------------




 average (electrostatic) potential at core
  the test charge radii are     0.9892
  (the norm of the test charge is              1.0000)
       1 -84.3492       2 -84.3490       3 -84.3563       4 -84.3487       5 -84.3526
       6 -84.3499       7 -84.3444       8 -84.3550
 
 
 
 E-fermi :   5.1982     XC(G=0):  -9.5533     alpha+bet :-11.7379


 k-point   1 :       0.0000    0.0000    0.0000
  band No.  band energies     occupation 
      1      -6.6372      2.00000
      2      -2.6484      2.00000
      3      -2.6416      2.00000
      4      -2.6366      2.00000
      5      -2.6308      2.00000
      6      -2.6195      2.00000
      7      -2.6115      2.00000
      8       2.3703      2.00000
      9       2.3727      2.00000
     10       2.3733      2.00000
     11       2.3790      2.00000
     12       2.3821      2.00000
     13       2.3885      2.00000
     14       5.0437      2.00000
     15       5.0744      2.00000
     16       5.0819      2.00000
     17       6.1397      0.00000
     18       6.1465      0.00000
     19       6.1501      0.00000
     20       6.1553      0.00000
     21       6.1578      0.00000
     22       6.1697      0.00000
     23       7.8410      0.00000
     24       7.8451      0.00000
     25       7.8624      0.00000
     26       8.1178      0.00000
     27      13.1837      0.00000
     28      13.1838      0.00000
     29      13.2693      0.00000
     30      15.0731      0.00000
     31      15.0806      0.00000
     32      15.0832      0.00000
     33      15.0873      0.00000
     34      15.0905      0.00000
     35      15.0936      0.00000
     36      16.2939      0.00000
     37      16.3026      0.00000
     38      16.3058      0.00000
     39      16.3111      0.00000
     40      16.3178      0.00000
     41      16.3287      0.00000
     42      16.6949      0.00000
     43      16.6995      0.00000
     44      16.7184      0.00000
     45      17.8623      0.00000
     46      17.8664      0.00000
     47      17.8755      0.00000
     48      17.8879      0.00000


--------------------------------------------------------------------------------------------------------


 soft charge-density along one line, spin component           1
         0         1         2         3         4         5         6         7         8         9
 total charge-density along one line
 
 pseudopotential strength for first ion, spin component:           1
 18.662   0.000   0.000   0.000   0.000   0.000   0.000   0.000
  0.000   0.006   0.000   0.000   0.000   0.000   0.000   0.000
  0.000   0.000   4.216   0.000   0.000  -0.004   0.000   0.000
  0.000   0.000   0.000   4.216   0.000   0.000  -0.004   0.000
  0.000   0.000   0.000   0.000   4.216   0.000   0.000  -0.004
  0.000   0.000  -0.004   0.000   0.000   0.005   0.000   0.000
  0.000   0.000   0.000  -0.004   0.000   0.000   0.005   0.000
  0.000   0.000   0.000   0.000  -0.004   0.000   0.000   0.005
 total augmentation occupancy for first ion, spin component:           1
  1.380  -1.051   0.001  -0.001  -0.001  -0.002   0.001   0.001
 -1.051   0.918  -0.002   0.000   0.002   0.002  -0.001  -0.002
  0.001  -0.002   1.164  -0.001  -0.001  -0.757   0.002   0.001
 -0.001   0.000  -0.001   1.162   0.001   0.002  -0.756  -0.002
 -0.001   0.002  -0.001   0.001   1.167   0.001  -0.003  -0.760
 -0.002   0.002  -0.757   0.002   0.001   0.569  -0.002  -0.002
  0.001  -0.001   0.002  -0.756  -0.003  -0.002   0.568   0.003
  0.001  -0.002   0.001  -0.002  -0.760  -0.002   0.003   0.571


----------------------------------------- Iteration    1(   6)  ---------------------------------------


    POTLOK:  cpu time    0.02: real time    0.02
    SETDIJ:  cpu time    0.02: real time    0.02
    EDDIAG:  cpu time    0.03: real time    0.03
  RMM-DIIS:  cpu time    0.03: real time    0.03
    ORTHCH:  cpu time    0.01: real time    0.01
       DOS:  cpu time    0.00: real time    0.00
    CHARGE:  cpu time    0.02: real time    0.02
    MIXING:  cpu time    0.00: real time    0.00
    --------------------------------------------
      LOOP:  cpu time    0.13: real time    0.14

 eigenvalue-minimisations  :    96
 total energy-change (2. order) : 0.1001732E+01  (-0.3198611E-01)
 number of electron      31.9999999 magnetization 
 augmentation part       -1.7684069 magnetization 

 Broyden mixing:
  rms(total) = 0.47400E+00    rms(broyden)= 0.47400E+00
  rms(prec ) = 0.91067E+00
  weight for this iteration     100.00

 eigenvalues of (default mixing * dielectric matrix)
  average eigenvalue GAMMA=   2.4573
  2.4573

 Free energy of the ion-electron system (eV)
  ---------------------------------------------------
  alpha Z        PSCENC =        12.68944982
  Ewald energy   TEWEN  =      -907.56617266
  -1/2 Hartree   DENC   =       -54.68314242
  -exchange  EXHF       =         0.00000000
  -V(xc)+E(xc)   XCENC  =       -75.44939887
  PAW double counting   =       286.06089523     -144.35921005
  entropy T*S    EENTRO =         0.00000000
  eigenvalues    EBANDS =        23.31772015
  atomic energy  EATOM  =       826.37398168
  ---------------------------------------------------
  free energy    TOTEN  =       -33.61587712 eV

  energy without entropy =      -33.61587712  energy(sigma->0) =      -33.61587712


--------------------------------------------------------------------------------------------------------




 average (electrostatic) potential at core
  the test charge radii are     0.9892
  (the norm of the test charge is              1.0000)
       1 -83.8322       2 -83.8320       3 -83.8356       4 -83.8319       5 -83.8339
       6 -83.8325       7 -83.8298       8 -83.8349
 
 
 
 E-fermi :   5.5606     XC(G=0):  -9.4504     alpha+bet :-11.7379


 k-point   1 :       0.0000    0.0000    0.0000
  band No.  band energies     occupation 
      1      -6.3788      2.00000
      2      -2.3475      2.00000
      3      -2.3417      2.00000
      4      -2.3381      2.00000
      5      -2.3318      2.00000
      6      -2.3211      2.00000
      7      -2.3147      2.00000
      8       2.6319      2.00000
      9       2.6343      2.00000
     10       2.6349      2.00000
     11       2.6399      2.00000
     12       2.6428      2.00000
     13       2.6485      2.00000
     14       5.3775      2.00000
     15       5.4076      2.00000
     16       5.4150      2.00000
     17       6.2552      0.00000
     18       6.2613      0.00000
     19       6.2648      0.00000
     20       6.2690      0.00000
     21       6.2724      0.00000
     22       6.2829      0.00000
     23       8.0482      0.00000
     24       8.0524      0.00000
     25       8.0700      0.00000
     26       8.4862      0.00000
     27      13.3050      0.00000
     28      13.3569      0.00000
     29      13.3569      0.00000
     30      15.3698      0.00000
     31      15.3772      0.00000
     32      15.3794      0.00000
     33      15.3837      0.00000
     34      15.3864      0.00000
     35      15.3889      0.00000
     36      16.5312      0.00000
     37      16.5391      0.00000
     38      16.5420      0.00000
     39      16.5469      0.00000
     40      16.5528      0.00000
     41      16.5630      0.00000
     42      16.7394      0.00000
     43      16.7441      0.00000
     44      16.7633      0.00000
     45      18.1524      0.00000
     46      18.1545      0.00000
     47      18.1643      0.00000
     48      18.1752      0.00000


--------------------------------------------------------------------------------------------------------


 soft charge-density along one line, spin component           1
         0         1         2         3         4         5         6         7         8         9
 total charge-density along one line
 
 pseudopotential strength for first ion, spin component:           1
 18.635  -0.001   0.000   0.000   0.000   0.000   0.000   0.000
 -0.001   0.006   0.000   0.000   0.000   0.000   0.000   0.000
  0.000   0.000   4.221   0.000   0.000  -0.004   0.000   0.000
  0.000   0.000   0.000   4.221   0.000   0.000  -0.004   0.000
  0.000   0.000   0.000   0.000   4.221   0.000   0.000  -0.004
  0.000   0.000  -0.004   0.000   0.000   0.005   0.000   0.000
  0.000   0.000   0.000  -0.004   0.000   0.000   0.005   0.000
  0.000   0.000   0.000   0.000  -0.004   0.000   0.000   0.005
 total augmentation occupancy for first ion, spin component:           1
  1.351  -1.090   0.001  -0.001  -0.001  -0.002   0.001   0.002
 -1.090   0.996  -0.002   0.000   0.002   0.002  -0.001  -0.002
  0.001  -0.002   1.146  -0.001  -0.001  -0.781   0.002   0.001
 -0.001   0.000  -0.001   1.145   0.001   0.002  -0.780  -0.002
 -0.001   0.002  -0.001   0.001   1.149   0.001  -0.003  -0.783
 -0.002   0.002  -0.781   0.002   0.001   0.607  -0.002  -0.002
  0.001  -0.001   0.002  -0.780  -0.003  -0.002   0.606   0.003
  0.002  -0.002   0.001  -0.002  -0.783  -0.002   0.003   0.609


----------------------------------------- Iteration    1(   7)  ---------------------------------------


    POTLOK:  cpu time    0.02: real time    0.02
    SETDIJ:  cpu time    0.02: real time    0.02
    EDDIAG:  cpu time    0.02: real time    0.02
  RMM-DIIS:  cpu time    0.02: real time    0.03
    ORTHCH:  cpu time    0.01: real time    0.01
       DOS:  cpu time    0.00: real time    0.00
    CHARGE:  cpu time    0.02: real time    0.02
    MIXING:  cpu time    0.00: real time    0.00
    --------------------------------------------
      LOOP:  cpu time    0.11: real time    0.12

 eigenvalue-minimisations  :    96
 total energy-change (2. order) : 0.4246771E+00  (-0.7389320E-01)
 number of electron      31.9999999 magnetization 
 augmentation part       -1.7214530 magnetization 

 Broyden mixing:
  rms(total) = 0.46247E-01    rms(broyden)= 0.46237E-01
  rms(prec ) = 0.78451E-01
  weight for this iteration     100.00

 eigenvalues of (default mixing * dielectric matrix)
  average eigenvalue GAMMA=   2.5300
  2.5300  2.5300

 Free energy of the ion-electron system (eV)
  ---------------------------------------------------
  alpha Z        PSCENC =        12.68944982
  Ewald energy   TEWEN  =      -907.56617266
  -1/2 Hartree   DENC   =       -70.51435382
  -exchange  EXHF       =         0.00000000
  -V(xc)+E(xc)   XCENC  =       -73.00922897
  PAW double counting   =       313.72546699     -172.73750291
  entropy T*S    EENTRO =         0.00000000
  eigenvalues    EBANDS =        37.84715988
  atomic energy  EATOM  =       826.37398168
  ---------------------------------------------------
  free energy    TOTEN  =       -33.19120001 eV

  energy without entropy =      -33.19120001  energy(sigma->0) =      -33.19120001


--------------------------------------------------------------------------------------------------------




 average (electrostatic) potential at core
  the test charge radii are     0.9892
  (the norm of the test charge is              1.0000)
       1 -83.1452       2 -83.1444       3 -83.1470       4 -83.1453       5 -83.1461
       6 -83.1456       7 -83.1438       8 -83.1468
 
 
 
 E-fermi :   6.0954     XC(G=0):  -9.2018     alpha+bet :-11.7379


 k-point   1 :       0.0000    0.0000    0.0000
  band No.  band energies     occupation 
      1      -5.9621      2.00000
      2      -1.8794      2.00000
      3      -1.8745      2.00000
      4      -1.8719      2.00000
      5      -1.8651      2.00000
      6      -1.8552      2.00000
      7      -1.8501      2.00000
      8       3.0449      2.00000
      9       3.0474      2.00000
     10       3.0484      2.00000
     11       3.0523      2.00000
     12       3.0548      2.00000
     13       3.0601      2.00000
     14       5.9027      2.00000
     15       5.9320      2.00000
     16       5.9392      2.00000
     17       6.5147      0.00000
     18       6.5199      0.00000
     19       6.5233      0.00000
     20       6.5270      0.00000
     21       6.5310      0.00000
     22       6.5399      0.00000
     23       8.3732      0.00000
     24       8.3775      0.00000
     25       8.3953      0.00000
     26       9.0452      0.00000
     27      13.6013      0.00000
     28      13.6204      0.00000
     29      13.6204      0.00000
     30      15.8205      0.00000
     31      15.8274      0.00000
     32      15.8295      0.00000
     33      15.8338      0.00000
     34      15.8361      0.00000
     35      15.8379      0.00000
     36      16.8935      0.00000
     37      16.8982      0.00000
     38      16.9173      0.00000
     39      16.9528      0.00000
     40      16.9592      0.00000
     41      16.9619      0.00000
     42      16.9662      0.00000
     43      16.9714      0.00000
     44      16.9806      0.00000
     45      18.6511      0.00000
     46      18.6552      0.00000
     47      18.6636      0.00000
     48      18.6723      0.00000


--------------------------------------------------------------------------------------------------------


 soft charge-density along one line, spin component           1
         0         1         2         3         4         5         6         7         8         9
 total charge-density along one line
 
 pseudopotential strength for first ion, spin component:           1
 18.596  -0.001   0.000   0.000   0.000   0.000   0.000   0.000
 -0.001   0.006   0.000   0.000   0.000   0.000   0.000   0.000
  0.000   0.000   4.227   0.000   0.000  -0.005   0.000   0.000
  0.000   0.000   0.000   4.227   0.000   0.000  -0.005   0.000
  0.000   0.000   0.000   0.000   4.227   0.000   0.000  -0.005
  0.000   0.000  -0.005   0.000   0.000   0.005   0.000   0.000
  0.000   0.000   0.000  -0.005   0.000   0.000   0.005   0.000
  0.000   0.000   0.000   0.000  -0.005   0.000   0.000   0.005
 total augmentation occupancy for first ion, spin component:           1
  1.314  -1.111   0.000  -0.001  -0.001  -0.002   0.001   0.002
 -1.111   1.057  -0.002   0.000   0.002   0.003  -0.001  -0.002
  0.000  -0.002   1.121  -0.001   0.000  -0.804   0.002   0.001
 -0.001   0.000  -0.001   1.120   0.001   0.002  -0.803  -0.002
 -0.001   0.002   0.000   0.001   1.124   0.001  -0.002  -0.806
 -0.002   0.003  -0.804   0.002   0.001   0.651  -0.002  -0.002
  0.001  -0.001   0.002  -0.803  -0.002  -0.002   0.650   0.003
  0.002  -0.002   0.001  -0.002  -0.806  -0.002   0.003   0.653


----------------------------------------- Iteration    1(   8)  ---------------------------------------


    POTLOK:  cpu time    0.02: real time    0.02
    SETDIJ:  cpu time    0.02: real time    0.02
    EDDIAG:  cpu time    0.02: real time    0.02
  RMM-DIIS:  cpu time    0.02: real time    0.02
    ORTHCH:  cpu time    0.00: real time    0.01
       DOS:  cpu time    0.00: real time    0.00
    CHARGE:  cpu time    0.02: real time    0.02
    MIXING:  cpu time    0.00: real time    0.00
    --------------------------------------------
      LOOP:  cpu time    0.11: real time    0.11

 eigenvalue-minimisations  :    96
 total energy-change (2. order) :-0.3198109E-01  (-0.2161391E-02)
 number of electron      31.9999999 magnetization 
 augmentation part       -1.7275464 magnetization 

 Broyden mixing:
  rms(total) = 0.74878E-02    rms(broyden)= 0.74873E-02
  rms(prec ) = 0.17951E-01
  weight for this iteration     100.00

 eigenvalues of (default mixing * dielectric matrix)
  average eigenvalue GAMMA=   2.1215
  1.2750  2.8654  2.2242

 Free energy of the ion-electron system (eV)
  ---------------------------------------------------
  alpha Z        PSCENC =        12.68944982
  Ewald energy   TEWEN  =      -907.56617266
  -1/2 Hartree   DENC   =       -70.39955110
  -exchange  EXHF       =         0.00000000
  -V(xc)+E(xc)   XCENC  =       -72.96564594
  PAW double counting   =       307.36475425     -166.19202476
  entropy T*S    EENTRO =         0.00000000
  eigenvalues    EBANDS =        37.47202763
  atomic energy  EATOM  =       826.37398168
  ---------------------------------------------------
  free energy    TOTEN  =       -33.22318109 eV

  energy without entropy =      -33.22318109  energy(sigma->0) =      -33.22318109


--------------------------------------------------------------------------------------------------------




 average (electrostatic) potential at core
  the test charge radii are     0.9892
  (the norm of the test charge is              1.0000)
       1 -83.2474       2 -83.2468       3 -83.2526       4 -83.2472       5 -83.2500
       6 -83.2481       7 -83.2438       8 -83.2517
 
 
 
 E-fermi :   6.0338     XC(G=0):  -9.1504     alpha+bet :-11.7379


 k-point   1 :       0.0000    0.0000    0.0000
  band No.  band energies     occupation 
      1      -5.9632      2.00000
      2      -1.8919      2.00000
      3      -1.8866      2.00000
      4      -1.8832      2.00000
      5      -1.8768      2.00000
      6      -1.8664      2.00000
      7      -1.8604      2.00000
      8       3.0331      2.00000
      9       3.0357      2.00000
     10       3.0368      2.00000
     11       3.0408      2.00000
     12       3.0434      2.00000
     13       3.0492      2.00000
     14       5.8865      2.00000
     15       5.9160      2.00000
     16       5.9232      2.00000
     17       6.5652      0.00000
     18       6.5706      0.00000
     19       6.5742      0.00000
     20       6.5780      0.00000
     21       6.5819      0.00000
     22       6.5913      0.00000
     23       8.3626      0.00000
     24       8.3669      0.00000
     25       8.3846      0.00000
     26       9.0381      0.00000
     27      13.6065      0.00000
     28      13.6065      0.00000
     29      13.7783      0.00000
     30      15.8058      0.00000
     31      15.8125      0.00000
     32      15.8149      0.00000
     33      15.8190      0.00000
     34      15.8217      0.00000
     35      15.8235      0.00000
     36      16.9302      0.00000
     37      16.9347      0.00000
     38      16.9516      0.00000
     39      16.9609      0.00000
     40      16.9658      0.00000
     41      16.9684      0.00000
     42      16.9728      0.00000
     43      16.9787      0.00000
     44      16.9878      0.00000
     45      18.6877      0.00000
     46      18.6932      0.00000
     47      18.7007      0.00000
     48      18.7093      0.00000


--------------------------------------------------------------------------------------------------------


 soft charge-density along one line, spin component           1
         0         1         2         3         4         5         6         7         8         9
 total charge-density along one line
 
 pseudopotential strength for first ion, spin component:           1
 18.599  -0.001   0.000   0.000   0.000   0.000   0.000   0.000
 -0.001   0.006   0.000   0.000   0.000   0.000   0.000   0.000
  0.000   0.000   4.224   0.000   0.000  -0.005   0.000   0.000
  0.000   0.000   0.000   4.224   0.000   0.000  -0.005   0.000
  0.000   0.000   0.000   0.000   4.224   0.000   0.000  -0.005
  0.000   0.000  -0.005   0.000   0.000   0.005   0.000   0.000
  0.000   0.000   0.000  -0.005   0.000   0.000   0.005   0.000
  0.000   0.000   0.000   0.000  -0.005   0.000   0.000   0.005
 total augmentation occupancy for first ion, spin component:           1
  1.320  -1.092   0.001  -0.001  -0.001  -0.002   0.001   0.001
 -1.092   1.020  -0.002   0.000   0.002   0.002  -0.001  -0.002
  0.001  -0.002   1.123  -0.001   0.000  -0.800   0.002   0.001
 -0.001   0.000  -0.001   1.121   0.001   0.002  -0.799  -0.002
 -0.001   0.002   0.000   0.001   1.125   0.001  -0.002  -0.802
 -0.002   0.002  -0.800   0.002   0.001   0.646  -0.002  -0.002
  0.001  -0.001   0.002  -0.799  -0.002  -0.002   0.645   0.003
  0.001  -0.002   0.001  -0.002  -0.802  -0.002   0.003   0.648


----------------------------------------- Iteration    1(   9)  ---------------------------------------


    POTLOK:  cpu time    0.02: real time    0.02
    SETDIJ:  cpu time    0.02: real time    0.02
    EDDIAG:  cpu time    0.02: real time    0.02
  RMM-DIIS:  cpu time    0.03: real time    0.03
    ORTHCH:  cpu time    0.01: real time    0.01
       DOS:  cpu time    0.00: real time    0.00
    CHARGE:  cpu time    0.02: real time    0.02
    MIXING:  cpu time    0.00: real time    0.00
    --------------------------------------------
      LOOP:  cpu time    0.12: real time    0.12

 eigenvalue-minimisations  :   105
 total energy-change (2. order) :-0.1134611E-02  (-0.1265257E-03)
 number of electron      31.9999999 magnetization 
 augmentation part       -1.7274633 magnetization 

 Broyden mixing:
  rms(total) = 0.41734E-02    rms(broyden)= 0.41732E-02
  rms(prec ) = 0.68376E-02
  weight for this iteration     100.00

 eigenvalues of (default mixing * dielectric matrix)
  average eigenvalue GAMMA=   2.2961
  0.9875  3.2300  2.6781  2.2891

 Free energy of the ion-electron system (eV)
  ---------------------------------------------------
  alpha Z        PSCENC =        12.68944982
  Ewald energy   TEWEN  =      -907.56617266
  -1/2 Hartree   DENC   =       -70.79631449
  -exchange  EXHF       =         0.00000000
  -V(xc)+E(xc)   XCENC  =       -72.90639645
  PAW double counting   =       307.71582327     -166.55350480
  entropy T*S    EENTRO =         0.00000000
  eigenvalues    EBANDS =        37.81881793
  atomic energy  EATOM  =       826.37398168
  ---------------------------------------------------
  free energy    TOTEN  =       -33.22431570 eV

  energy without entropy =      -33.22431570  energy(sigma->0) =      -33.22431570


--------------------------------------------------------------------------------------------------------




 average (electrostatic) potential at core
  the test charge radii are     0.9892
  (the norm of the test charge is              1.0000)
       1 -83.2333       2 -83.2332       3 -83.2374       4 -83.2331       5 -83.2354
       6 -83.2338       7 -83.2306       8 -83.2366
 
 
 
 E-fermi :   6.0483     XC(G=0):  -9.1362     alpha+bet :-11.7379


 k-point   1 :       0.0000    0.0000    0.0000
  band No.  band energies     occupation 
      1      -5.9519      2.00000
      2      -1.8804      2.00000
      3      -1.8753      2.00000
      4      -1.8721      2.00000
      5      -1.8656      2.00000
      6      -1.8554      2.00000
      7      -1.8497      2.00000
      8       3.0431      2.00000
      9       3.0456      2.00000
     10       3.0466      2.00000
     11       3.0506      2.00000
     12       3.0532      2.00000
     13       3.0588      2.00000
     14       5.8987      2.00000
     15       5.9280      2.00000
     16       5.9352      2.00000
     17       6.5792      0.00000
     18       6.5846      0.00000
     19       6.5883      0.00000
     20       6.5921      0.00000
     21       6.5959      0.00000
     22       6.6054      0.00000
     23       8.3702      0.00000
     24       8.3745      0.00000
     25       8.3922      0.00000
     26       9.0526      0.00000
     27      13.6117      0.00000
     28      13.6117      0.00000
     29      13.8106      0.00000
     30      15.8163      0.00000
     31      15.8232      0.00000
     32      15.8254      0.00000
     33      15.8296      0.00000
     34      15.8321      0.00000
     35      15.8340      0.00000
     36      16.9402      0.00000
     37      16.9448      0.00000
     38      16.9621      0.00000
     39      16.9727      0.00000
     40      16.9779      0.00000
     41      16.9805      0.00000
     42      16.9849      0.00000
     43      16.9907      0.00000
     44      16.9997      0.00000
     45      18.7054      0.00000
     46      18.7113      0.00000
     47      18.7189      0.00000
     48      18.7273      0.00000


--------------------------------------------------------------------------------------------------------


 soft charge-density along one line, spin component           1
         0         1         2         3         4         5         6         7         8         9
 total charge-density along one line
 
 pseudopotential strength for first ion, spin component:           1
 18.598  -0.001   0.000   0.000   0.000   0.000   0.000   0.000
 -0.001   0.006   0.000   0.000   0.000   0.000   0.000   0.000
  0.000   0.000   4.224   0.000   0.000  -0.005   0.000   0.000
  0.000   0.000   0.000   4.224   0.000   0.000  -0.005   0.000
  0.000   0.000   0.000   0.000   4.224   0.000   0.000  -0.005
  0.000   0.000  -0.005   0.000   0.000   0.005   0.000   0.000
  0.000   0.000   0.000  -0.005   0.000   0.000   0.005   0.000
  0.000   0.000   0.000   0.000  -0.005   0.000   0.000   0.005
 total augmentation occupancy for first ion, spin component:           1
  1.320  -1.086   0.001  -0.001  -0.001  -0.002   0.001   0.001
 -1.086   1.011  -0.002   0.000   0.002   0.002  -0.001  -0.002
  0.001  -0.002   1.122  -0.001   0.000  -0.800   0.002   0.001
 -0.001   0.000  -0.001   1.121   0.001   0.002  -0.799  -0.002
 -0.001   0.002   0.000   0.001   1.125   0.001  -0.002  -0.802
 -0.002   0.002  -0.800   0.002   0.001   0.646  -0.002  -0.002
  0.001  -0.001   0.002  -0.799  -0.002  -0.002   0.645   0.003
  0.001  -0.002   0.001  -0.002  -0.802  -0.002   0.003   0.648


----------------------------------------- Iteration    1(  10)  ---------------------------------------


    POTLOK:  cpu time    0.02: real time    0.02
    SETDIJ:  cpu time    0.02: real time    0.02
    EDDIAG:  cpu time    0.02: real time    0.02
  RMM-DIIS:  cpu time    0.03: real time    0.03
    ORTHCH:  cpu time    0.01: real time    0.01
       DOS:  cpu time    0.00: real time    0.00
    CHARGE:  cpu time    0.02: real time    0.02
    MIXING:  cpu time    0.00: real time    0.00
    --------------------------------------------
      LOOP:  cpu time    0.11: real time    0.12

 eigenvalue-minimisations  :   104
 total energy-change (2. order) :-0.1842097E-03  (-0.2384875E-04)
 number of electron      31.9999999 magnetization 
 augmentation part       -1.7273438 magnetization 

 Broyden mixing:
  rms(total) = 0.44597E-03    rms(broyden)= 0.44553E-03
  rms(prec ) = 0.90230E-03
  weight for this iteration     100.00

 eigenvalues of (default mixing * dielectric matrix)
  average eigenvalue GAMMA=   2.0375
  3.0891  2.6248  2.1633  0.9779  1.3325

 Free energy of the ion-electron system (eV)
  ---------------------------------------------------
  alpha Z        PSCENC =        12.68944982
  Ewald energy   TEWEN  =      -907.56617266
  -1/2 Hartree   DENC   =       -70.84759794
  -exchange  EXHF       =         0.00000000
  -V(xc)+E(xc)   XCENC  =       -72.90950690
  PAW double counting   =       307.80330001     -166.64712904
  entropy T*S    EENTRO =         0.00000000
  eigenvalues    EBANDS =        37.87917512
  atomic energy  EATOM  =       826.37398168
  ---------------------------------------------------
  free energy    TOTEN  =       -33.22449991 eV

  energy without entropy =      -33.22449991  energy(sigma->0) =      -33.22449991


--------------------------------------------------------------------------------------------------------




 average (electrostatic) potential at core
  the test charge radii are     0.9892
  (the norm of the test charge is              1.0000)
       1 -83.2251       2 -83.2250       3 -83.2281       4 -83.2248       5 -83.2266
       6 -83.2253       7 -83.2230       8 -83.2275
 
 
 
 E-fermi :   6.0531     XC(G=0):  -9.1307     alpha+bet :-11.7379


 k-point   1 :       0.0000    0.0000    0.0000
  band No.  band energies     occupation 
      1      -5.9496      2.00000
      2      -1.8782      2.00000
      3      -1.8732      2.00000
      4      -1.8702      2.00000
      5      -1.8636      2.00000
      6      -1.8535      2.00000
      7      -1.8480      2.00000
      8       3.0448      2.00000
      9       3.0472      2.00000
     10       3.0482      2.00000
     11       3.0523      2.00000
     12       3.0548      2.00000
     13       3.0602      2.00000
     14       5.9008      2.00000
     15       5.9301      2.00000
     16       5.9373      2.00000
     17       6.5844      0.00000
     18       6.5899      0.00000
     19       6.5935      0.00000
     20       6.5973      0.00000
     21       6.6011      0.00000
     22       6.6107      0.00000
     23       8.3712      0.00000
     24       8.3754      0.00000
     25       8.3931      0.00000
     26       9.0562      0.00000
     27      13.6117      0.00000
     28      13.6117      0.00000
     29      13.8263      0.00000
     30      15.8181      0.00000
     31      15.8250      0.00000
     32      15.8271      0.00000
     33      15.8314      0.00000
     34      15.8339      0.00000
     35      15.8357      0.00000
     36      16.9442      0.00000
     37      16.9488      0.00000
     38      16.9657      0.00000
     39      16.9756      0.00000
     40      16.9806      0.00000
     41      16.9832      0.00000
     42      16.9875      0.00000
     43      16.9933      0.00000
     44      17.0022      0.00000
     45      18.7127      0.00000
     46      18.7180      0.00000
     47      18.7258      0.00000
     48      18.7345      0.00000


--------------------------------------------------------------------------------------------------------


 soft charge-density along one line, spin component           1
         0         1         2         3         4         5         6         7         8         9
 total charge-density along one line
 
 pseudopotential strength for first ion, spin component:           1
 18.597  -0.001   0.000   0.000   0.000   0.000   0.000   0.000
 -0.001   0.006   0.000   0.000   0.000   0.000   0.000   0.000
  0.000   0.000   4.224   0.000   0.000  -0.005   0.000   0.000
  0.000   0.000   0.000   4.224   0.000   0.000  -0.005   0.000
  0.000   0.000   0.000   0.000   4.224   0.000   0.000  -0.005
  0.000   0.000  -0.005   0.000   0.000   0.005   0.000   0.000
  0.000   0.000   0.000  -0.005   0.000   0.000   0.005   0.000
  0.000   0.000   0.000   0.000  -0.005   0.000   0.000   0.005
 total augmentation occupancy for first ion, spin component:           1
  1.320  -1.086   0.001  -0.001  -0.001  -0.002   0.001   0.001
 -1.086   1.011  -0.002   0.000   0.002   0.002  -0.001  -0.002
  0.001  -0.002   1.122  -0.001   0.000  -0.800   0.002   0.001
 -0.001   0.000  -0.001   1.121   0.001   0.002  -0.799  -0.002
 -0.001   0.002   0.000   0.001   1.125   0.001  -0.002  -0.802
 -0.002   0.002  -0.800   0.002   0.001   0.647  -0.002  -0.002
  0.001  -0.001   0.002  -0.799  -0.002  -0.002   0.646   0.003
  0.001  -0.002   0.001  -0.002  -0.802  -0.002   0.003   0.649


----------------------------------------- Iteration    1(  11)  ---------------------------------------


    POTLOK:  cpu time    0.02: real time    0.02
    SETDIJ:  cpu time    0.02: real time    0.02
    EDDIAG:  cpu time    0.02: real time    0.02
  RMM-DIIS:  cpu time    0.03: real time    0.04
    ORTHCH:  cpu time    0.01: real time    0.01
       DOS:  cpu time    0.00: real time    0.00
    CHARGE:  cpu time    0.02: real time    0.02
    MIXING:  cpu time    0.00: real time    0.00
    --------------------------------------------
      LOOP:  cpu time    0.12: real time    0.13

 eigenvalue-minimisations  :   116
 total energy-change (2. order) : 0.4474450E-05  (-0.3132614E-06)
 number of electron      31.9999999 magnetization 
 augmentation part       -1.7274426 magnetization 

 Broyden mixing:
  rms(total) = 0.16156E-03    rms(broyden)= 0.16150E-03
  rms(prec ) = 0.31726E-03
  weight for this iteration     100.00

 eigenvalues of (default mixing * dielectric matrix)
  average eigenvalue GAMMA=   1.9585
  3.2025  2.6997  2.1617  1.7450  0.9710  0.9710

 Free energy of the ion-electron system (eV)
  ---------------------------------------------------
  alpha Z        PSCENC =        12.68944982
  Ewald energy   TEWEN  =      -907.56617266
  -1/2 Hartree   DENC   =       -70.82823632
  -exchange  EXHF       =         0.00000000
  -V(xc)+E(xc)   XCENC  =       -72.91088199
  PAW double counting   =       307.73405355     -166.57520524
  entropy T*S    EENTRO =         0.00000000
  eigenvalues    EBANDS =        37.85851573
  atomic energy  EATOM  =       826.37398168
  ---------------------------------------------------
  free energy    TOTEN  =       -33.22449544 eV

  energy without entropy =      -33.22449544  energy(sigma->0) =      -33.22449544


--------------------------------------------------------------------------------------------------------




 average (electrostatic) potential at core
  the test charge radii are     0.9892
  (the norm of the test charge is              1.0000)
       1 -83.2270       2 -83.2269       3 -83.2307       4 -83.2268       5 -83.2289
       6 -83.2274       7 -83.2245       8 -83.2300
 
 
 
 E-fermi :   6.0531     XC(G=0):  -9.1314     alpha+bet :-11.7379


 k-point   1 :       0.0000    0.0000    0.0000
  band No.  band energies     occupation 
      1      -5.9502      2.00000
      2      -1.8790      2.00000
      3      -1.8739      2.00000
      4      -1.8708      2.00000
      5      -1.8643      2.00000
      6      -1.8541      2.00000
      7      -1.8484      2.00000
      8       3.0441      2.00000
      9       3.0466      2.00000
     10       3.0477      2.00000
     11       3.0517      2.00000
     12       3.0542      2.00000
     13       3.0598      2.00000
     14       5.9001      2.00000
     15       5.9293      2.00000
     16       5.9365      2.00000
     17       6.5838      0.00000
     18       6.5892      0.00000
     19       6.5928      0.00000
     20       6.5966      0.00000
     21       6.6005      0.00000
     22       6.6100      0.00000
     23       8.3707      0.00000
     24       8.3750      0.00000
     25       8.3927      0.00000
     26       9.0553      0.00000
     27      13.6114      0.00000
     28      13.6115      0.00000
     29      13.8249      0.00000
     30      15.8174      0.00000
     31      15.8243      0.00000
     32      15.8265      0.00000
     33      15.8307      0.00000
     34      15.8332      0.00000
     35      15.8351      0.00000
     36      16.9437      0.00000
     37      16.9483      0.00000
     38      16.9652      0.00000
     39      16.9750      0.00000
     40      16.9800      0.00000
     41      16.9826      0.00000
     42      16.9869      0.00000
     43      16.9927      0.00000
     44      17.0016      0.00000
     45      18.7139      0.00000
     46      18.7176      0.00000
     47      18.7257      0.00000
     48      18.7353      0.00000


--------------------------------------------------------------------------------------------------------


 soft charge-density along one line, spin component           1
         0         1         2         3         4         5         6         7         8         9
 total charge-density along one line
 
 pseudopotential strength for first ion, spin component:           1
 18.597  -0.001   0.000   0.000   0.000   0.000   0.000   0.000
 -0.001   0.006   0.000   0.000   0.000   0.000   0.000   0.000
  0.000   0.000   4.224   0.000   0.000  -0.005   0.000   0.000
  0.000   0.000   0.000   4.224   0.000   0.000  -0.005   0.000
  0.000   0.000   0.000   0.000   4.224   0.000   0.000  -0.005
  0.000   0.000  -0.005   0.000   0.000   0.005   0.000   0.000
  0.000   0.000   0.000  -0.005   0.000   0.000   0.005   0.000
  0.000   0.000   0.000   0.000  -0.005   0.000   0.000   0.005
 total augmentation occupancy for first ion, spin component:           1
  1.320  -1.086   0.001  -0.001  -0.001  -0.002   0.001   0.001
 -1.086   1.011  -0.002   0.000   0.002   0.002  -0.001  -0.002
  0.001  -0.002   1.122  -0.001   0.000  -0.800   0.002   0.001
 -0.001   0.000  -0.001   1.121   0.001   0.002  -0.799  -0.002
 -0.001   0.002   0.000   0.001   1.125   0.001  -0.002  -0.802
 -0.002   0.002  -0.800   0.002   0.001   0.647  -0.002  -0.002
  0.001  -0.001   0.002  -0.799  -0.002  -0.002   0.646   0.003
  0.001  -0.002   0.001  -0.002  -0.802  -0.002   0.003   0.649


----------------------------------------- Iteration    1(  12)  ---------------------------------------


    POTLOK:  cpu time    0.02: real time    0.02
    SETDIJ:  cpu time    0.02: real time    0.02
    EDDIAG:  cpu time    0.02: real time    0.02
  RMM-DIIS:  cpu time    0.03: real time    0.03
    ORTHCH:  cpu time    0.00: real time    0.01
       DOS:  cpu time    0.00: real time    0.00
    CHARGE:  cpu time    0.02: real time    0.02
    MIXING:  cpu time    0.00: real time    0.00
    --------------------------------------------
      LOOP:  cpu time    0.12: real time    0.13

 eigenvalue-minimisations  :   127
 total energy-change (2. order) :-0.7015135E-06  (-0.5527410E-07)
 number of electron      31.9999999 magnetization 
 augmentation part       -1.7274294 magnetization 

 Broyden mixing:
  rms(total) = 0.59709E-04    rms(broyden)= 0.59678E-04
  rms(prec ) = 0.84363E-04
  weight for this iteration     100.00

 eigenvalues of (default mixing * dielectric matrix)
  average eigenvalue GAMMA=   1.9987
  3.2089  2.7394  2.4750  2.0954  1.5124  0.9972  0.9624

 Free energy of the ion-electron system (eV)
  ---------------------------------------------------
  alpha Z        PSCENC =        12.68944982
  Ewald energy   TEWEN  =      -907.56617266
  -1/2 Hartree   DENC   =       -70.83269605
  -exchange  EXHF       =         0.00000000
  -V(xc)+E(xc)   XCENC  =       -72.91080650
  PAW double counting   =       307.74201195     -166.58338517
  entropy T*S    EENTRO =         0.00000000
  eigenvalues    EBANDS =        37.86312080
  atomic energy  EATOM  =       826.37398168
  ---------------------------------------------------
  free energy    TOTEN  =       -33.22449614 eV

  energy without entropy =      -33.22449614  energy(sigma->0) =      -33.22449614


--------------------------------------------------------------------------------------------------------




 average (electrostatic) potential at core
  the test charge radii are     0.9892
  (the norm of the test charge is              1.0000)
       1 -83.2265       2 -83.2263       3 -83.2303       4 -83.2263       5 -83.2284
       6 -83.2269       7 -83.2240       8 -83.2296
 
 
 
 E-fermi :   6.0542     XC(G=0):  -9.1311     alpha+bet :-11.7379


 k-point   1 :       0.0000    0.0000    0.0000
  band No.  band energies     occupation 
      1      -5.9500      2.00000
      2      -1.8789      2.00000
      3      -1.8738      2.00000
      4      -1.8706      2.00000
      5      -1.8642      2.00000
      6      -1.8540      2.00000
      7      -1.8483      2.00000
      8       3.0443      2.00000
      9       3.0467      2.00000
     10       3.0478      2.00000
     11       3.0518      2.00000
     12       3.0544      2.00000
[...]
    MIXING:  cpu time    0.00: real time    0.00
    --------------------------------------------
      LOOP:  cpu time    0.15: real time    0.15

 Broyden mixing:
  rms(total) = 0.71153E-02    rms(broyden)= 0.71149E-02
  rms(prec ) = 0.12216E-01
  weight for this iteration     100.00

 eigenvalues of (default mixing * dielectric matrix)
  average eigenvalue GAMMA=   2.0722
  3.0238  2.4850  1.1227  1.6573

 Free energy of the ion-electron system (eV)
  ---------------------------------------------------
  -1/2 Hartree   DENC   =        -4.61503404
  -V(xc)+E(xc)   XCENC  =         0.94966624
  PAW double counting   =         3.10253054       -3.15192815
  entropy T*S    EENTRO =         0.00000000
  eigenvalues    EBANDS =       -24.52883149
  ---------------------------------------------------
  free energy    TOTEN  =       -28.24359690 eV

  energy without entropy =      -28.24359690


----------------------------------------- Iteration    3(   7)  ---------------------------------------


   POT+DIJ:  cpu time    0.07: real time    0.07
    HAMIL1:  cpu time    0.00: real time    0.01
    LRDIAG:  cpu time    0.01: real time    0.01
    LRDIIS:  cpu time    0.02: real time    0.02
    LRDIAG:  cpu time    0.01: real time    0.01
    MIXING:  cpu time    0.00: real time    0.00
    --------------------------------------------
      LOOP:  cpu time    0.15: real time    0.15

 Broyden mixing:
  rms(total) = 0.55158E-03    rms(broyden)= 0.55069E-03
  rms(prec ) = 0.10524E-02
  weight for this iteration     100.00

 eigenvalues of (default mixing * dielectric matrix)
  average eigenvalue GAMMA=   1.9563
  3.0909  2.4124  1.1152  1.6700  1.4930

 Free energy of the ion-electron system (eV)
  ---------------------------------------------------
  -1/2 Hartree   DENC   =        -4.62707433
  -V(xc)+E(xc)   XCENC  =         0.95741331
  PAW double counting   =         3.06522823       -3.11406571
  entropy T*S    EENTRO =         0.00000000
  eigenvalues    EBANDS =       -24.56513194
  ---------------------------------------------------
  free energy    TOTEN  =       -28.28363044 eV

  energy without entropy =      -28.28363044


----------------------------------------- Iteration    3(   8)  ---------------------------------------


   POT+DIJ:  cpu time    0.07: real time    0.07
    HAMIL1:  cpu time    0.00: real time    0.01
    LRDIAG:  cpu time    0.01: real time    0.01
    LRDIIS:  cpu time    0.02: real time    0.02
    LRDIAG:  cpu time    0.01: real time    0.02
    MIXING:  cpu time    0.00: real time    0.00
    --------------------------------------------
      LOOP:  cpu time    0.15: real time    0.16

 Broyden mixing:
  rms(total) = 0.27683E-03    rms(broyden)= 0.27676E-03
  rms(prec ) = 0.41062E-03
  weight for this iteration     100.00

 eigenvalues of (default mixing * dielectric matrix)
  average eigenvalue GAMMA=   1.9082
  3.0848  2.4749  2.0133  1.6658  1.1337  1.0765

 Free energy of the ion-electron system (eV)
  ---------------------------------------------------
  -1/2 Hartree   DENC   =        -4.63065568
  -V(xc)+E(xc)   XCENC  =         0.95836875
  PAW double counting   =         3.06903046       -3.11793186
  entropy T*S    EENTRO =         0.00000000
  eigenvalues    EBANDS =       -24.56627427
  ---------------------------------------------------
  free energy    TOTEN  =       -28.28746259 eV

  energy without entropy =      -28.28746259


----------------------------------------- Iteration    3(   9)  ---------------------------------------


   POT+DIJ:  cpu time    0.07: real time    0.07
    HAMIL1:  cpu time    0.00: real time    0.01
    LRDIAG:  cpu time    0.01: real time    0.01
    LRDIIS:  cpu time    0.02: real time    0.02
    LRDIAG:  cpu time    0.01: real time    0.01
    MIXING:  cpu time    0.00: real time    0.00
    --------------------------------------------
      LOOP:  cpu time    0.15: real time    0.15

 Broyden mixing:
  rms(total) = 0.10693E-03    rms(broyden)= 0.10691E-03
  rms(prec ) = 0.16150E-03
  weight for this iteration     100.00

 eigenvalues of (default mixing * dielectric matrix)
  average eigenvalue GAMMA=   1.8933
  3.1714  2.7276  2.3952  1.6767  1.2846  1.1043  0.8937

 Free energy of the ion-electron system (eV)
  ---------------------------------------------------
  -1/2 Hartree   DENC   =        -4.63031512
  -V(xc)+E(xc)   XCENC  =         0.95830242
  PAW double counting   =         3.07105049       -3.11998681
  entropy T*S    EENTRO =         0.00000000
  eigenvalues    EBANDS =       -24.56654397
  ---------------------------------------------------
  free energy    TOTEN  =       -28.28749299 eV

  energy without entropy =      -28.28749299


----------------------------------------- Iteration    3(  10)  ---------------------------------------


   POT+DIJ:  cpu time    0.07: real time    0.07
    HAMIL1:  cpu time    0.01: real time    0.01
    LRDIAG:  cpu time    0.01: real time    0.01
    LRDIIS:  cpu time    0.02: real time    0.02
    LRDIAG:  cpu time    0.01: real time    0.01
    MIXING:  cpu time    0.00: real time    0.00
    --------------------------------------------
      LOOP:  cpu time    0.15: real time    0.15

 Broyden mixing:
  rms(total) = 0.16076E-04    rms(broyden)= 0.16065E-04
  rms(prec ) = 0.25901E-04
  weight for this iteration     100.00

 eigenvalues of (default mixing * dielectric matrix)
  average eigenvalue GAMMA=   1.8340
  3.1942  2.7647  2.4477  1.6722  1.4091  0.9696  1.1181  1.0965

 Free energy of the ion-electron system (eV)
  ---------------------------------------------------
  -1/2 Hartree   DENC   =        -4.63040317
  -V(xc)+E(xc)   XCENC  =         0.95834578
  PAW double counting   =         3.07221969       -3.12117639
  entropy T*S    EENTRO =         0.00000000
  eigenvalues    EBANDS =       -24.56680294
  ---------------------------------------------------
  free energy    TOTEN  =       -28.28781703 eV

  energy without entropy =      -28.28781703


----------------------------------------- Iteration    3(  11)  ---------------------------------------


   POT+DIJ:  cpu time    0.07: real time    0.07
    HAMIL1:  cpu time    0.00: real time    0.01
    LRDIAG:  cpu time    0.01: real time    0.01
    LRDIIS:  cpu time    0.02: real time    0.02
    LRDIAG:  cpu time    0.01: real time    0.01
    MIXING:  cpu time    0.00: real time    0.00
    --------------------------------------------
      LOOP:  cpu time    0.15: real time    0.15

 Broyden mixing:
  rms(total) = 0.40160E-05    rms(broyden)= 0.40141E-05
  rms(prec ) = 0.61494E-05
  weight for this iteration     100.00

 eigenvalues of (default mixing * dielectric matrix)
  average eigenvalue GAMMA=   1.8462
  3.1985  2.7910  2.4389  2.0225  1.6729  1.3788  1.1044  0.9759  1.0333

 Free energy of the ion-electron system (eV)
  ---------------------------------------------------
  -1/2 Hartree   DENC   =        -4.63040903
  -V(xc)+E(xc)   XCENC  =         0.95834211
  PAW double counting   =         3.07232294       -3.12128135
  entropy T*S    EENTRO =         0.00000000
  eigenvalues    EBANDS =       -24.56678397
  ---------------------------------------------------
  free energy    TOTEN  =       -28.28780931 eV

  energy without entropy =      -28.28780931


----------------------------------------- Iteration    3(  12)  ---------------------------------------


   POT+DIJ:  cpu time    0.07: real time    0.07
    HAMIL1:  cpu time    0.00: real time    0.01
    LRDIAG:  cpu time    0.01: real time    0.01
    LRDIIS:  cpu time    0.02: real time    0.02
    LRDIAG:  cpu time    0.01: real time    0.01
    MIXING:  cpu time    0.00: real time    0.00
    --------------------------------------------
      LOOP:  cpu time    0.15: real time    0.15

 Broyden mixing:
  rms(total) = 0.14319E-05    rms(broyden)= 0.14315E-05
  rms(prec ) = 0.20200E-05
  weight for this iteration     100.00

 eigenvalues of (default mixing * dielectric matrix)
  average eigenvalue GAMMA=   1.8394
  3.2037  2.7863  2.4433  2.3999  1.6728  1.3841  1.3841  1.0071  1.0071  1.1055

 Free energy of the ion-electron system (eV)
  ---------------------------------------------------
  -1/2 Hartree   DENC   =        -4.63040925
  -V(xc)+E(xc)   XCENC  =         0.95834199
  PAW double counting   =         3.07225891       -3.12121621
  entropy T*S    EENTRO =         0.00000000
  eigenvalues    EBANDS =       -24.56678597
  ---------------------------------------------------
  free energy    TOTEN  =       -28.28781053 eV

  energy without entropy =      -28.28781053


----------------------------------------- Iteration    3(  13)  ---------------------------------------


   POT+DIJ:  cpu time    0.07: real time    0.07
    HAMIL1:  cpu time    0.00: real time    0.01
    LRDIAG:  cpu time    0.01: real time    0.01
    LRDIIS:  cpu time    0.02: real time    0.02
    LRDIAG:  cpu time    0.01: real time    0.01
    MIXING:  cpu time    0.00: real time    0.00
    --------------------------------------------
      LOOP:  cpu time    0.15: real time    0.15

 Broyden mixing:
  rms(total) = 0.39872E-06    rms(broyden)= 0.39864E-06
  rms(prec ) = 0.63576E-06
  weight for this iteration     100.00

 eigenvalues of (default mixing * dielectric matrix)
  average eigenvalue GAMMA=   1.8170
  3.2067  2.8430  2.4455  2.5874  1.6784  1.6261  1.0038  1.0038  1.1062  1.2428
  1.2428

 Free energy of the ion-electron system (eV)
  ---------------------------------------------------
  -1/2 Hartree   DENC   =        -4.63041076
  -V(xc)+E(xc)   XCENC  =         0.95834219
  PAW double counting   =         3.07223054       -3.12118737
  entropy T*S    EENTRO =         0.00000000
  eigenvalues    EBANDS =       -24.56678588
  ---------------------------------------------------
  free energy    TOTEN  =       -28.28781128 eV

  energy without entropy =      -28.28781128


------------------------ aborting loop because EDIFF is reached ----------------------------------------


 change of polarisation eV/A/(eV/A) component  3 :    -0.286     0.319    50.535
 dielectric tensor                  component  3 :    -0.316     0.353    56.872


--------------------------------------------------------------------------------------------------------


    FORLOC:  cpu time    0.00: real time    0.00
    FORNL :  cpu time    0.08: real time    0.08
    STRESS:  cpu time    0.27: real time    0.27
    FORCOR:  cpu time    0.02: real time    0.02
    FORLOC:  cpu time    0.00: real time    0.00
    FORNL :  cpu time    0.08: real time    0.08
    STRESS:  cpu time    0.26: real time    0.27
    FORCOR:  cpu time    0.02: real time    0.02
    FORNLD:  cpu time    0.01: real time    0.01

 PIEZOELECTRIC TENSOR FIELD DIRECTION 3  (e Angst)
 -----------------------------------------------------------------------------
     0.00112  0.00106  0.00162           (  0.00000 -0.00002  0.00001)
     0.00106  0.00421 -0.00950           ( -0.00002  0.00000 -0.00001)
     0.00162 -0.00950 -0.00430           (  0.00001 -0.00001  0.00001)

 PIEZOELECTRIC TENSOR FIELD DIRECTION 3  (C/m^2)
 -----------------------------------------------------------------------------
     0.00011  0.00010  0.00016
     0.00010  0.00041 -0.00093
     0.00016 -0.00093 -0.00042


      POSITION         DIRECTION 3           BORN EFFECTIVE CHARGE    (rigid.aug.   ionic)
 -----------------------------------------------------------------------------------------
      5.46893      0.00355      5.46767    -0.11342  0.10468 -5.78155 (  0.21592  4.00000)
      1.37105      1.36517      1.36822     0.03835 -0.04719 -5.80612 (  0.21592  4.00000)
      2.73267      2.73572      5.46853     0.15409 -0.11595 -5.70758 (  0.21595  4.00000)
      4.10322      4.10103      1.36558     0.03560  0.00967 -5.80909 (  0.21592  4.00000)
      2.73353      5.46808      2.73515     0.12473  0.09033 -5.77016 (  0.21594  4.00000)
      4.10058      1.36765      4.10607    -0.02247 -0.02308 -5.77570 (  0.21593  4.00000)
      0.00015      2.73857      2.73489    -0.13574 -0.11671 -5.84569 (  0.21590  4.00000)
      1.37107      4.10239      4.10233    -0.01075  0.01969 -5.71844 (  0.21595  4.00000)
 -----------------------------------------------------------------------------------------
    total drift (improves with k-points):   0.07038 -0.07855-46.21435




--------------------------------------------------------------------------------------------------------


  LATTYP: Found a simple cubic cell.
 ALAT       =     5.4700000000
  
  Lattice vectors:
  
 A1 = (   5.4700000000,   0.0000000000,   0.0000000000)
 A2 = (   0.0000000000,   5.4700000000,   0.0000000000)
 A3 = (   0.0000000000,   0.0000000000,   5.4700000000)


Analysis of symmetry for initial positions (statically):
=====================================================================
 Subroutine PRICEL returns:
 Original cell was already a primitive cell.
 

 Routine SETGRP: Setting up the symmetry group for a 
 simple cubic supercell.


 Subroutine GETGRP returns: Found  1 space group operations
 (whereof  1 operations were pure point group operations)
 out of a pool of 48 trial point group operations.


The static configuration has the point symmetry C_1 .


Analysis of symmetry for dynamics (positions and initial velocities):
=====================================================================
 Subroutine PRICEL returns:
 Original cell was already a primitive cell.
 

 Routine SETGRP: Setting up the symmetry group for a 
 simple cubic supercell.


 Subroutine GETGRP returns: Found  1 space group operations
 (whereof  1 operations were pure point group operations)
 out of a pool of 48 trial point group operations.


The dynamic configuration has the point symmetry C_1 .


 MACROSCOPIC STATIC DIELECTRIC TENSOR (including local field effects in DFT)
 ------------------------------------------------------
          56.871404     0.190343    -0.316261
           0.190344    56.877599     0.352543
          -0.316260     0.352541    56.872359
 ------------------------------------------------------



--------------------------------------------------------------------------------------------------------


  LATTYP: Found a simple cubic cell.
 ALAT       =     5.4700000000
  
  Lattice vectors:
  
 A1 = (   5.4700000000,   0.0000000000,   0.0000000000)
 A2 = (   0.0000000000,   5.4700000000,   0.0000000000)
 A3 = (   0.0000000000,   0.0000000000,   5.4700000000)


Analysis of symmetry for initial positions (statically):
=====================================================================
 Subroutine PRICEL returns:
 Original cell was already a primitive cell.
 

 Routine SETGRP: Setting up the symmetry group for a 
 simple cubic supercell.


 Subroutine GETGRP returns: Found  1 space group operations
 (whereof  1 operations were pure point group operations)
 out of a pool of 48 trial point group operations.


The static configuration has the point symmetry C_1 .


Analysis of symmetry for dynamics (positions and initial velocities):
=====================================================================
 Subroutine PRICEL returns:
 Original cell was already a primitive cell.
 

 Routine SETGRP: Setting up the symmetry group for a 
 simple cubic supercell.


 Subroutine GETGRP returns: Found  1 space group operations
 (whereof  1 operations were pure point group operations)
 out of a pool of 48 trial point group operations.


The dynamic configuration has the point symmetry C_1 .
 
 KPOINTS: Automatic mesh                          

Automatic generation of k-mesh.
Space group operators:
 irot       det(A)        alpha          n_x          n_y          n_z        tau_x        tau_y        tau_z
    1     1.000000     0.000001     1.000000     0.000000     0.000000     0.000000     0.000000     0.000000
 
 Subroutine IBZKPT returns following result:
 ===========================================
 
 Found      1 irreducible k-points:
 
 Following reciprocal coordinates:
            Coordinates               Weight
  0.000000  0.000000  0.000000      1.000000
 
 Following cartesian coordinates:
            Coordinates               Weight
  0.000000  0.000000  0.000000      1.000000
 


--------------------------------------------------------------------------------------------------------




 MACROSCOPIC STATIC DIELECTRIC TENSOR (including local field effects in DFT)
 ------------------------------------------------------
          56.871404     0.190343    -0.316261
           0.190344    56.877599     0.352543
          -0.316260     0.352541    56.872359
 ------------------------------------------------------


 PIEZOELECTRIC TENSOR  for field in x, y, z        (e  Angst)
          XX          YY          ZZ          XY          YZ          ZX
  --------------------------------------------------------------------------------
  x     0.00361    -0.00151     0.00180    -0.00003     0.00274    -0.00277
  y     0.01869    -0.00626    -0.01036     0.00197    -0.00299    -0.00501
  z     0.00112     0.00421    -0.00430     0.00106    -0.00950     0.00162

 PIEZOELECTRIC TENSOR  for field in x, y, z        (C/m^2)
          XX          YY          ZZ          XY          YZ          ZX
  --------------------------------------------------------------------------------
  x     0.00035    -0.00015     0.00018     0.00000     0.00027    -0.00027
  y     0.00183    -0.00061    -0.00101     0.00019    -0.00029    -0.00049
  z     0.00011     0.00041    -0.00042     0.00010    -0.00093     0.00016
 
 BORN EFFECTIVE CHARGES (in e, cummulative output)
 -------------------------------------------------
 ion    1
    1    -5.81897    -0.03824     0.13022
    2     0.01205    -5.79084    -0.09726
    3    -0.11342     0.10468    -5.78155
 ion    2
    1    -5.78472     0.17407    -0.00304
    2    -0.23677    -5.79900     0.01048
    3     0.03835    -0.04719    -5.80612
 ion    3
    1    -5.69642     0.02793    -0.09873
    2    -0.02220    -5.72394     0.01408
    3     0.15409    -0.11595    -5.70758
 ion    4
    1    -5.80089    -0.18081    -0.01767
    2     0.23027    -5.78756    -0.04482
    3     0.03560     0.00967    -5.80909
 ion    5
    1    -5.73397    -0.03929    -0.11211
    2     0.01232    -5.75310    -0.04068
    3     0.12473     0.09033    -5.77016
 ion    6
    1    -5.79131     0.00088     0.01639
    2     0.05541    -5.79469     0.03221
    3    -0.02247    -0.02308    -5.77570
 ion    7
    1    -5.85966     0.02824     0.11973
    2    -0.02391    -5.84026     0.08619
    3    -0.13574    -0.11671    -5.84569
 ion    8
    1    -5.72904    -0.01530     0.03559
    2    -0.06974    -5.72634    -0.03888
    3    -0.01075     0.01969    -5.71844


--------------------------------------------------------------------------------------------------------


     LOOP+:  cpu time   19.52: real time   19.98
    4ORBIT:  cpu time    0.00: real time    0.00

 total amount of memory used by VASP on root node    32224. kBytes
========================================================================

   base      :      30000. kBytes
   nonl-proj :        202. kBytes
   fftplans  :        782. kBytes
   grid      :       1198. kBytes
   one-center:         24. kBytes
   wavefun   :         18. kBytes
 
  
  
 General timing and accounting informations for this job:
 ========================================================
  
                  Total CPU time used (sec):       20.280
                            User time (sec):       16.213
                          System time (sec):        4.067
                         Elapsed time (sec):       22.274
  
                   Maximum memory used (kb):       69428.
                   Average memory used (kb):           0.
  
                          Minor page faults:       214823
                          Major page faults:            0
                 Voluntary context switches:         1568
