 vasp.5.3.3 18Dez12 (build Jan  9 2014 12:00:49) complex                        
  
 executed on             LinuxIFC date 2014.01.29  10:03:18
 running on   48 total cores
 distrk:  each k-point on   48 cores,    1 groups
 distr:  one band on NCORES_PER_BAND=   1 cores,   48 groups


--------------------------------------------------------------------------------------------------------


 INCAR:
 POTCAR:    PAW Si                                

 ----------------------------------------------------------------------------- 
|                                                                             |
|           W    W    AA    RRRRR   N    N  II  N    N   GGGG   !!!           |
|           W    W   A  A   R    R  NN   N  II  NN   N  G    G  !!!           |
|           W    W  A    A  R    R  N N  N  II  N N  N  G       !!!           |
|           W WW W  AAAAAA  RRRRR   N  N N  II  N  N N  G  GGG   !            |
|           WW  WW  A    A  R   R   N   NN  II  N   NN  G    G                |
|           W    W  A    A  R    R  N    N  II  N    N   GGGG   !!!           |
|                                                                             |
|      For optimal performance we recommend that you set                      |
|        NPAR = 4 - approx SQRT( number of cores)                             |
|      (number of cores/NPAR must be integer)                                 |
|      This setting will greatly improve the performance of VASP for DFT.     |
|      The default NPAR=number of cores might be grossly inefficient          |
|      on modern multi-core architectures or massively parallel machines.     |
|      Do your own testing.                                                   |
|      Unfortunately you need to use the default for hybrid, GW and RPA       |
|      calculations.                                                          |
|                                                                             |
 ----------------------------------------------------------------------------- 

 POTCAR:    PAW Si                                
   VRHFIN =Si: s2p2                                                             
   LEXCH  = 91                                                                  
   EATOM  =   103.3076 eV,    7.5929 Ry                                         
                                                                                
   TITEL  = PAW Si                                                              
   LULTRA =        F    use ultrasoft PP ?                                      
   IUNSCR =        1    unscreen: 0-lin 1-nonlin 2-no                           
   RPACOR =    1.500    partial core radius                                     
   POMASS =   28.085; ZVAL   =    4.000    mass and valenz                      
   RCORE  =    1.900    outmost cutoff radius                                   
   RWIGS  =    2.480; RWIGS  =    1.312    wigner-seitz radius (au A)           
   ENMAX  =  245.435; ENMIN  =  184.076 eV                                      
   ICORE  =        2    local potential                                         
   LCOR   =        T    correct aug charges                                     
   LPAW   =        T    paw PP                                                  
   EAUG   =  322.069                                                            
   DEXC   =    -.001                                                            
   RMAX   =    2.943    core radius for proj-oper                               
   RAUG   =    1.300    factor for augmentation sphere                          
   RDEP   =    1.993    core radius for depl-charge                             
   QCUT   =   -4.247; QGAM   =    8.494    optimization parameters              
                                                                                
   Description                                                                  
     l     E      TYP  RCUT    TYP  RCUT                                        
     0   .000     23  1.900                                                     
     0   .000     23  1.900                                                     
     1   .000     23  1.900                                                     
     1   .000     23  1.900                                                     
     2   .000      7  1.900                                                     
  local pseudopotential read in
  partial core-charges read in
  atomic valenz-charges read in
  non local Contribution for L=           0  read in
    real space projection operators read in
  non local Contribution for L=           0  read in
    real space projection operators read in
  non local Contribution for L=           1  read in
    real space projection operators read in
  non local Contribution for L=           1  read in
    real space projection operators read in
    PAW grid and wavefunctions read in
 
   number of l-projection  operators is LMAX  =           4
   number of lm-projection operators is LMMAX =           8
 
  PAW Si                                :
 energy of atom  1       EATOM= -103.3076
 kinetic energy error for atom=    0.0109 (will be added to EATOM!!)
 
 
 POSCAR: OUTCAR.0011.+1.out 1.0e-02              
  positions in cartesian coordinates
  No initial velocities read in
 exchange correlation table for  LEXCH =        7
   RHO(1)=    0.500       N(1)  =     2000
   RHO(2)=  100.500       N(2)  =     4000

 VTST: version 3.0c, (01/09/14)

 CHAIN: initializing optimizer
 
 OPT: Using VASP Dynamics algorithm
 CHAIN: Read ICHAIN            0
 
 POSCAR: OUTCAR.0011.+1.out 1.0e-02              
  positions in cartesian coordinates
  No initial velocities read in
 


--------------------------------------------------------------------------------------------------------


 ion  position               nearest neighbor table
   1  1.000  0.000  0.001-   4 2.37   2 2.37   8 2.37   6 2.37
   2  0.250  0.251  0.250-   3 2.36   7 2.37   1 2.37   5 2.37
   3  0.501  0.500  0.000-   2 2.36   6 2.37   4 2.37   8 2.37
   4  0.750  0.750  0.250-   5 2.37   1 2.37   3 2.37   7 2.37
   5  0.500  0.000  0.501-   4 2.37   6 2.37   8 2.37   2 2.37
   6  0.750  0.251  0.750-   3 2.37   5 2.37   7 2.37   1 2.37
   7  0.001  0.500  0.500-   2 2.37   8 2.37   6 2.37   4 2.37
   8  0.250  0.750  0.750-   7 2.37   5 2.37   1 2.37   3 2.37
 
  LATTYP: Found a simple cubic cell.
 ALAT       =     5.4700000000
  
  Lattice vectors:
  
 A1 = (   5.4700000000,   0.0000000000,   0.0000000000)
 A2 = (   0.0000000000,   5.4700000000,   0.0000000000)
 A3 = (   0.0000000000,   0.0000000000,   5.4700000000)


Analysis of symmetry for initial positions (statically):
=====================================================================
 Subroutine PRICEL returns:
 Original cell was already a primitive cell.
 

 Routine SETGRP: Setting up the symmetry group for a 
 simple cubic supercell.


 Subroutine GETGRP returns: Found  1 space group operations
 (whereof  1 operations were pure point group operations)
 out of a pool of 48 trial point group operations.


The static configuration has the point symmetry C_1 .


Analysis of symmetry for dynamics (positions and initial velocities):
=====================================================================
 Subroutine PRICEL returns:
 Original cell was already a primitive cell.
 

 Routine SETGRP: Setting up the symmetry group for a 
 simple cubic supercell.


 Subroutine GETGRP returns: Found  1 space group operations
 (whereof  1 operations were pure point group operations)
 out of a pool of 48 trial point group operations.


The dynamic configuration has the point symmetry C_1 .


 irot  :   1
 --------------------------------------------------------------------
 isymop:   1   0   0
           0   1   0
           0   0   1

 gtrans:     0.0000000     0.0000000     0.0000000

 ptrans:     0.0000000     0.0000000     0.0000000
 rotmap:
 (   1->   1)  (   2->   2)  (   3->   3)  (   4->   4)  (   5->   5) 
 (   6->   6)  (   7->   7)  (   8->   8) 
 
 
 KPOINTS: Automatic mesh                          

Automatic generation of k-mesh.
Space group operators:
 irot       det(A)        alpha          n_x          n_y          n_z        tau_x        tau_y        tau_z
    1     1.000000     0.000001     1.000000     0.000000     0.000000     0.000000     0.000000     0.000000
 
 Subroutine IBZKPT returns following result:
 ===========================================
 
 Found      1 irreducible k-points:
 
 Following reciprocal coordinates:
            Coordinates               Weight
  0.000000  0.000000  0.000000      1.000000
 
 Following cartesian coordinates:
            Coordinates               Weight
  0.000000  0.000000  0.000000      1.000000
 
 
 Subroutine IBZKPT_HF returns following result:
 ==============================================
 
 Found      1 k-points in 1st BZ
 the following      1 k-points will be used (e.g. in the exchange kernel)
 Following reciprocal coordinates:   # in IRBZ
  0.000000  0.000000  0.000000       1 t-inv F


--------------------------------------------------------------------------------------------------------




 Dimension of arrays:
   k-points           NKPTS =      1   k-points in BZ     NKDIM =      1   number of bands    NBANDS=     48
   number of dos      NEDOS =    301   number of ions     NIONS =      8
   non local maximal  LDIM  =      4   non local SUM 2l+1 LMDIM =      8
   total plane-waves  NPLWV =  21952
   max r-space proj   IRMAX =      1   max aug-charges    IRDMAX=  36071
   dimension x,y,z NGX =    28 NGY =   28 NGZ =   28
   dimension x,y,z NGXF=    56 NGYF=   56 NGZF=   56
   support grid    NGXF=   112 NGYF=  112 NGZF=  112
   ions per type =               8
 NGX,Y,Z   is equivalent  to a cutoff of   8.51,  8.51,  8.51 a.u.
 NGXF,Y,Z  is equivalent  to a cutoff of  17.02, 17.02, 17.02 a.u.


 I would recommend the setting:
   dimension x,y,z NGX =    19 NGY =   19 NGZ =   19
 SYSTEM =  NAPTHA04                                
 POSCAR =  OUTCAR.0011.+1.out 1.0e-02              

 Startparameter for this run:
   NWRITE =      3    write-flag & timer
   PREC   = normal    normal or accurate (medium, high low for compatibility)
   ISTART =      0    job   : 0-new  1-cont  2-samecut
   ICHARG =      2    charge: 1-file 2-atom 10-const
   ISPIN  =      1    spin polarized calculation?
   LNONCOLLINEAR =      F non collinear calculations
   LSORBIT =      F    spin-orbit coupling
   INIWAV =      1    electr: 0-lowe 1-rand  2-diag
   LASPH  =      F    aspherical Exc in radial PAW
   METAGGA=      F    non-selfconsistent MetaGGA calc.

 Electronic Relaxation 1
   ENCUT  =  200.0 eV  14.70 Ry    3.83 a.u.   6.31  6.31  6.31*2*pi/ulx,y,z
   ENINI  =  200.0     initial cutoff
   ENAUG  =  322.1 eV  augmentation charge cutoff
   NELM   =     60;   NELMIN=  2; NELMDL= -5     # of ELM steps 
   EDIFF  = 0.1E-07   stopping-criterion for ELM
   LREAL  =      F    real-space projection
   NLSPLINE    = F    spline interpolate recip. space projectors
   LCOMPAT=      F    compatible to vasp.4.4
   GGA_COMPAT  = T    GGA compatible to vasp.4.4-vasp.4.6
   LMAXPAW     = -100 max onsite density
   LMAXMIX     =    2 max onsite mixed and CHGCAR
   VOSKOWN=      0    Vosko Wilk Nusair interpolation
   ROPT   =    0.00000
 Ionic relaxation
   EDIFFG = 0.1E-06   stopping-criterion for IOM
   NSW    =      0    number of steps for IOM
   NBLOCK =      1;   KBLOCK =      1    inner block; outer block 
   IBRION =     -1    ionic relax: 0-MD 1-quasi-New 2-CG
   NFREE  =      0    steps in history (QN), initial steepest desc. (CG)
   ISIF   =      2    stress and relaxation
   IWAVPR =     10    prediction:  0-non 1-charg 2-wave 3-comb
   ISYM   =      2    0-nonsym 1-usesym 2-fastsym
   LCORR  =      T    Harris-Foulkes like correction to forces

   POTIM  = 0.5000    time-step for ionic-motion
   TEIN   =    0.0    initial temperature
   TEBEG  =    0.0;   TEEND  =   0.0 temperature during run
   SMASS  =  -3.00    Nose mass-parameter (am)
   estimated Nose-frequenzy (Omega)   =  0.10E-29 period in steps =****** mass=  -0.684E-27a.u.
   SCALEE = 1.0000    scale energy and forces
   NPACO  =    256;   APACO  = 16.0  distance and # of slots for P.C.
   PSTRESS=    0.0 pullay stress

  Mass of Ions in am
   POMASS =  28.09
  Ionic Valenz
   ZVAL   =   4.00
  Atomic Wigner-Seitz radii
   RWIGS  =  -1.00
  virtual crystal weights 
   VCA    =   1.00
   NELECT =      32.0000    total number of electrons
   NUPDOWN=      -1.0000    fix difference up-down

 DOS related values:
   EMIN   =  10.00;   EMAX   =-10.00  energy-range for DOS
   EFERMI =   0.00
   ISMEAR =     0;   SIGMA  =   0.02  broadening in eV -4-tet -1-fermi 0-gaus

 Electronic relaxation 2 (details)
   IALGO  =     68    algorithm
   LDIAG  =      T    sub-space diagonalisation (order eigenvalues)
   LSUBROT=      T    optimize rotation matrix (better conditioning)
   TURBO    =      0    0=normal 1=particle mesh
   IRESTART =      0    0=no restart 2=restart with 2 vectors
   NREBOOT  =      0    no. of reboots
   NMIN     =      0    reboot dimension
   EREF     =   0.00    reference energy to select bands
   IMIX   =      4    mixing-type and parameters
     AMIX     =   0.40;   BMIX     =  1.00
     AMIX_MAG =   1.60;   BMIX_MAG =  1.00
     AMIN     =   0.10
     WC   =   100.;   INIMIX=   1;  MIXPRE=   1;  MAXMIX= -45

 Intra band minimization:
   WEIMIN = 0.0000     energy-eigenvalue tresh-hold
   EBREAK =  0.52E-10  absolut break condition
   DEPER  =   0.30     relativ break condition  

   TIME   =   0.40     timestep for ELM

  volume/ion in A,a.u.               =      20.46       138.06
  Fermi-wavevector in a.u.,A,eV,Ry     =   0.950176  1.795573 12.283814  0.902835
  Thomas-Fermi vector in A             =   2.078528
 
 Write flags
   LWAVE  =      F    write WAVECAR
   LCHARG =      F    write CHGCAR
   LVTOT  =      F    write LOCPOT, total local potential
   LVHAR  =      F    write LOCPOT, Hartree potential only
   LELF   =      F    write electronic localiz. function (ELF)
   LORBIT =      0    0 simple, 1 ext, 2 COOP (PROOUT)


 Dipole corrections
   LMONO  =      F    monopole corrections only (constant potential shift)
   LDIPOL =      F    correct potential (dipole corrections)
   IDIPOL =      0    1-x, 2-y, 3-z, 4-all directions 
   EPSILON=  1.0000000 bulk dielectric constant

 Exchange correlation treatment:
   GGA     =    --    GGA type
   LEXCH   =     7    internal setting for exchange type
   VOSKOWN=      0    Vosko Wilk Nusair interpolation
   LHFCALC =     F    Hartree Fock is set to
   LHFONE  =     F    Hartree Fock one center treatment
   AEXX    =    0.0000 exact exchange contribution

 Linear response parameters
   LEPSILON=     T    determine dielectric tensor
   LRPA    =     F    only Hartree local field effects (RPA)
   LNABLA  =     F    use nabla operator in PAW spheres
   LVEL    =     F    velocity operator in full k-point grid
   LINTERFAST=   F  fast interpolation
   KINTER  =     0    interpolate to denser k-point grid
   CSHIFT  =0.1000    complex shift for real part using Kramers Kronig
   OMEGAMAX=  -1.0    maximum frequency
   DEG_THRESHOLD= 0.2000000E-02 threshold for treating states as degnerate
   RTIME   =    0.100 relaxation time in fs

 Orbital magnetization related:
   ORBITALMAG=     F  switch on orbital magnetization
   LCHIMAG   =     F  perturbation theory with respect to B field
   DQ        =  0.001000  dq finite difference perturbation B field



--------------------------------------------------------------------------------------------------------


 Static calculation
 charge density and potential will be updated during run
 non-spin polarized calculation
 RMM-DIIS sequential band-by-band and
  variant of blocked Davidson during initial phase
 perform sub-space diagonalisation
    before iterative eigenvector-optimisation
 modified Broyden-mixing scheme, WC =      100.0
 initial mixing is a Kerker type mixing with AMIX =  0.4000 and BMIX =      1.0000
 Hartree-type preconditioning will be used
 using additional bands           32
 reciprocal scheme for non local part
 use partial core corrections
 calculate Harris-corrections to forces 
   (improved forces if not selfconsistent)
 use gradient corrections 
 use of overlap-Matrix (Vanderbilt PP)
 Gauss-broadening in eV      SIGMA  =   0.02


--------------------------------------------------------------------------------------------------------


  energy-cutoff  :      200.00
  volume of cell :      163.67
      direct lattice vectors                 reciprocal lattice vectors
     5.470000000  0.000000000  0.000000000     0.182815356  0.000000000  0.000000000
     0.000000000  5.470000000  0.000000000     0.000000000  0.182815356  0.000000000
     0.000000000  0.000000000  5.470000000     0.000000000  0.000000000  0.182815356

  length of vectors
     5.470000000  5.470000000  5.470000000     0.182815356  0.182815356  0.182815356


 
 k-points in units of 2pi/SCALE and weight: Automatic mesh                          
   0.00000000  0.00000000  0.00000000       1.000
 
 k-points in reciprocal lattice and weights: Automatic mesh                          
   0.00000000  0.00000000  0.00000000       1.000
 
 position of ions in fractional coordinates (direct lattice) 
   0.99981885  0.00000555  0.00053373
   0.25000555  0.25053373  0.24951337
   0.50053373  0.49951337  0.00044551
   0.74951337  0.75044551  0.25008517
   0.50044551  0.00008517  0.50060147
   0.75008517  0.25060147  0.74997004
   0.00060147  0.49997004  0.49986836
   0.24997004  0.74986836  0.74993365
 
 position of ions in cartesian coordinates  (Angst):
   5.46900908  0.00003038  0.00291948
   1.36753038  1.37041948  1.36483815
   2.73791948  2.73233815  0.00243693
   4.09983815  4.10493693  1.36796586
   2.73743693  0.00046586  2.73829007
   4.10296586  1.37079007  4.10233614
   0.00329007  2.73483614  2.73427995
   1.36733614  4.10177995  4.10213704
 


--------------------------------------------------------------------------------------------------------


 k-point  1 :   0.0000 0.0000 0.0000  plane waves:    1021

 maximum and minimum number of plane-waves per node :      1021     1021

 maximum number of plane-waves:      1021
 maximum index in each direction: 
   IXMAX=    6   IYMAX=    6   IZMAX=    6
   IXMIN=   -6   IYMIN=   -6   IZMIN=   -6

 NGX is ok and might be reduce to  26
 NGY is ok and might be reduce to  26
 NGZ is ok and might be reduce to  26

 serial   3D FFT for wavefunctions
 parallel 3D FFT for charge:
    minimum data exchange during FFTs selected (reduces bandwidth)


 total amount of memory used by VASP on root node    32224. kBytes
========================================================================

   base      :      30000. kBytes
   nonl-proj :        202. kBytes
   fftplans  :        782. kBytes
   grid      :       1198. kBytes
   one-center:         24. kBytes
   wavefun   :         18. kBytes
 
 Broyden mixing: mesh for mixing (old mesh)
   NGX = 13   NGY = 13   NGZ = 13
  (NGX  = 56   NGY  = 56   NGZ  = 56)
  gives a total of   2197 points

 initial charge density was supplied:
 charge density of overlapping atoms calculated
 number of electron      32.0000000 magnetization 
 keeping initial charge density in first step


--------------------------------------------------------------------------------------------------------


 Maximum index for augmentation-charges         1784 (set IRDMAX)


--------------------------------------------------------------------------------------------------------


 First call to EWALD:  gamma=   0.324
 Maximum number of real-space cells 3x 3x 3
 Maximum number of reciprocal cells 3x 3x 3

 FEWALD executed in parallel
    FEWALD:  cpu time    0.00: real time    0.00


----------------------------------------- Iteration    1(   1)  ---------------------------------------


    POTLOK:  cpu time    0.03: real time    0.03
    SETDIJ:  cpu time    0.02: real time    0.02
     EDDAV:  cpu time    0.40: real time    0.40
       DOS:  cpu time    0.00: real time    0.00
    --------------------------------------------
      LOOP:  cpu time    0.45: real time    0.46

 eigenvalue-minimisations  :    96
 total energy-change (2. order) :-0.1010919E+02  (-0.7955697E+03)
 number of electron      32.0000000 magnetization 
 augmentation part       32.0000000 magnetization 

 Free energy of the ion-electron system (eV)
  ---------------------------------------------------
  alpha Z        PSCENC =        12.68944982
  Ewald energy   TEWEN  =      -907.56698200
  -1/2 Hartree   DENC   =       -45.63603461
  -exchange  EXHF       =         0.00000000
  -V(xc)+E(xc)   XCENC  =       -76.79672182
  PAW double counting   =       265.93453375     -123.69690146
  entropy T*S    EENTRO =        -0.00028372
  eigenvalues    EBANDS =        38.58977065
  atomic energy  EATOM  =       826.37398168
  ---------------------------------------------------
  free energy    TOTEN  =       -10.10918770 eV

  energy without entropy =      -10.10890398  energy(sigma->0) =      -10.10904584


--------------------------------------------------------------------------------------------------------




 average (electrostatic) potential at core
  the test charge radii are     0.9892
  (the norm of the test charge is              1.0000)
       1 -84.3484       2 -84.3521       3 -84.3544       4 -84.3518       5 -84.3488
       6 -84.3523       7 -84.3510       8 -84.3464
 
 
 
 E-fermi :   6.6071     XC(G=0):  -9.5533     alpha+bet :-11.7379


 k-point   1 :       0.0000    0.0000    0.0000
  band No.  band energies     occupation 
      1      -6.5896      2.00000
      2      -2.4106      2.00000
      3      -2.2581      2.00000
      4      -2.1251      2.00000
      5      -2.0296      2.00000
      6      -1.8701      2.00000
      7      -1.6737      2.00000
      8       2.7441      2.00000
      9       2.8515      2.00000
     10       2.9936      2.00000
     11       3.1587      2.00000
     12       3.3460      2.00000
     13       4.0764      2.00000
     14       6.1476      2.00000
     15       6.3685      2.00000
     16       6.5652      1.99691
     17       6.6489      0.00309
     18       6.8035      0.00000
     19       6.9092      0.00000
     20       7.1695      0.00000
     21       7.3745      0.00000
     22       8.0432      0.00000
     23       8.9795      0.00000
     24       9.3748      0.00000
     25      10.4550      0.00000
     26      11.4548      0.00000
     27      13.5064      0.00000
     28      14.7756      0.00000
     29      16.5554      0.00000
     30      16.8917      0.00000
     31      17.3614      0.00000
     32      17.5850      0.00000
     33      17.9260      0.00000
     34      18.1328      0.00000
     35      18.4937      0.00000
     36      18.8807      0.00000
     37      19.3770      0.00000
     38      19.5131      0.00000
     39      19.8562      0.00000
     40      20.2452      0.00000
     41      21.0935      0.00000
     42      21.6808      0.00000
     43      22.1807      0.00000
     44      22.7700      0.00000
     45      23.9071      0.00000
     46      24.4004      0.00000
     47      24.8152      0.00000
     48      25.8331      0.00000


--------------------------------------------------------------------------------------------------------


 soft charge-density along one line, spin component           1
         0         1         2         3         4         5         6         7         8         9
 total charge-density along one line
 
 pseudopotential strength for first ion, spin component:           1
 18.662   0.000   0.000   0.000   0.000   0.000   0.000   0.000
  0.000   0.006   0.000   0.000   0.000   0.000   0.000   0.000
  0.000   0.000   4.216   0.000   0.000  -0.004   0.000   0.000
  0.000   0.000   0.000   4.216   0.000   0.000  -0.004   0.000
  0.000   0.000   0.000   0.000   4.216   0.000   0.000  -0.004
  0.000   0.000  -0.004   0.000   0.000   0.005   0.000   0.000
  0.000   0.000   0.000  -0.004   0.000   0.000   0.005   0.000
  0.000   0.000   0.000   0.000  -0.004   0.000   0.000   0.005
 total augmentation occupancy for first ion, spin component:           1
  2.000   0.000   0.000   0.000   0.000   0.000   0.000   0.000
  0.000   0.000   0.000   0.000   0.000   0.000   0.000   0.000
  0.000   0.000   0.667   0.000   0.000   0.000   0.000   0.000
  0.000   0.000   0.000   0.667   0.000   0.000   0.000   0.000
  0.000   0.000   0.000   0.000   0.667   0.000   0.000   0.000
  0.000   0.000   0.000   0.000   0.000   0.000   0.000   0.000
  0.000   0.000   0.000   0.000   0.000   0.000   0.000   0.000
  0.000   0.000   0.000   0.000   0.000   0.000   0.000   0.000


----------------------------------------- Iteration    1(   2)  ---------------------------------------


     EDDAV:  cpu time    0.96: real time    0.96
       DOS:  cpu time    0.00: real time    0.00
    --------------------------------------------
      LOOP:  cpu time    0.96: real time    0.97

 eigenvalue-minimisations  :   144
 total energy-change (2. order) :-0.2434070E+02  (-0.2433776E+02)
 number of electron      32.0000000 magnetization 
 augmentation part       32.0000000 magnetization 

 Free energy of the ion-electron system (eV)
  ---------------------------------------------------
  alpha Z        PSCENC =        12.68944982
  Ewald energy   TEWEN  =      -907.56698200
  -1/2 Hartree   DENC   =       -45.63603461
  -exchange  EXHF       =         0.00000000
  -V(xc)+E(xc)   XCENC  =       -76.79672182
  PAW double counting   =       265.93453375     -123.69690146
  entropy T*S    EENTRO =         0.00000000
  eigenvalues    EBANDS =        14.24878224
  atomic energy  EATOM  =       826.37398168
  ---------------------------------------------------
  free energy    TOTEN  =       -34.44989239 eV

  energy without entropy =      -34.44989239  energy(sigma->0) =      -34.44989239


--------------------------------------------------------------------------------------------------------




 average (electrostatic) potential at core
  the test charge radii are     0.9892
  (the norm of the test charge is              1.0000)
       1 -84.3484       2 -84.3521       3 -84.3544       4 -84.3518       5 -84.3488
       6 -84.3523       7 -84.3510       8 -84.3464
 
 
 
 E-fermi :   5.2464     XC(G=0):  -9.5533     alpha+bet :-11.7379


 k-point   1 :       0.0000    0.0000    0.0000
  band No.  band energies     occupation 
      1      -6.6371      2.00000
      2      -2.6444      2.00000
      3      -2.6406      2.00000
      4      -2.6353      2.00000
      5      -2.6247      2.00000
      6      -2.6159      2.00000
      7      -2.6143      2.00000
      8       2.3743      2.00000
      9       2.3762      2.00000
     10       2.3783      2.00000
     11       2.3843      2.00000
     12       2.3872      2.00000
     13       2.3960      2.00000
     14       5.0635      2.00000
     15       5.0731      2.00000
     16       5.1038      2.00000
     17       6.1469      0.00000
     18       6.1481      0.00000
     19       6.1513      0.00000
     20       6.1607      0.00000
     21       6.1646      0.00000
     22       6.1679      0.00000
     23       7.8418      0.00000
     24       7.8618      0.00000
     25       7.8679      0.00000
     26       8.1267      0.00000
     27      13.2004      0.00000
     28      13.2621      0.00000
     29      13.2700      0.00000
     30      15.0978      0.00000
     31      15.1307      0.00000
     32      15.1736      0.00000
     33      15.2524      0.00000
     34      15.3117      0.00000
     35      15.6345      0.00000
     36      16.3880      0.00000
     37      16.4178      0.00000
     38      16.4489      0.00000
     39      16.5303      0.00000
     40      16.7211      0.00000
     41      16.7539      0.00000
     42      16.7627      0.00000
     43      16.8637      0.00000
     44      17.2348      0.00000
     45      17.9148      0.00000
     46      17.9642      0.00000
     47      17.9949      0.00000
     48      18.0112      0.00000


--------------------------------------------------------------------------------------------------------


 soft charge-density along one line, spin component           1
         0         1         2         3         4         5         6         7         8         9
 total charge-density along one line
 
 pseudopotential strength for first ion, spin component:           1
 18.662   0.000   0.000   0.000   0.000   0.000   0.000   0.000
  0.000   0.006   0.000   0.000   0.000   0.000   0.000   0.000
  0.000   0.000   4.216   0.000   0.000  -0.004   0.000   0.000
  0.000   0.000   0.000   4.216   0.000   0.000  -0.004   0.000
  0.000   0.000   0.000   0.000   4.216   0.000   0.000  -0.004
  0.000   0.000  -0.004   0.000   0.000   0.005   0.000   0.000
  0.000   0.000   0.000  -0.004   0.000   0.000   0.005   0.000
  0.000   0.000   0.000   0.000  -0.004   0.000   0.000   0.005
 total augmentation occupancy for first ion, spin component:           1
  2.000   0.000   0.000   0.000   0.000   0.000   0.000   0.000
  0.000   0.000   0.000   0.000   0.000   0.000   0.000   0.000
  0.000   0.000   0.667   0.000   0.000   0.000   0.000   0.000
  0.000   0.000   0.000   0.667   0.000   0.000   0.000   0.000
  0.000   0.000   0.000   0.000   0.667   0.000   0.000   0.000
  0.000   0.000   0.000   0.000   0.000   0.000   0.000   0.000
  0.000   0.000   0.000   0.000   0.000   0.000   0.000   0.000
  0.000   0.000   0.000   0.000   0.000   0.000   0.000   0.000


----------------------------------------- Iteration    1(   3)  ---------------------------------------


     EDDAV:  cpu time    0.39: real time    0.39
       DOS:  cpu time    0.00: real time    0.00
    --------------------------------------------
      LOOP:  cpu time    0.39: real time    0.39

 eigenvalue-minimisations  :    96
 total energy-change (2. order) :-0.1673575E+00  (-0.1673575E+00)
 number of electron      32.0000000 magnetization 
 augmentation part       32.0000000 magnetization 

 Free energy of the ion-electron system (eV)
  ---------------------------------------------------
  alpha Z        PSCENC =        12.68944982
  Ewald energy   TEWEN  =      -907.56698200
  -1/2 Hartree   DENC   =       -45.63603461
  -exchange  EXHF       =         0.00000000
  -V(xc)+E(xc)   XCENC  =       -76.79672182
  PAW double counting   =       265.93453375     -123.69690146
  entropy T*S    EENTRO =         0.00000000
  eigenvalues    EBANDS =        14.08142473
  atomic energy  EATOM  =       826.37398168
  ---------------------------------------------------
  free energy    TOTEN  =       -34.61724991 eV

  energy without entropy =      -34.61724991  energy(sigma->0) =      -34.61724991


--------------------------------------------------------------------------------------------------------




 average (electrostatic) potential at core
  the test charge radii are     0.9892
  (the norm of the test charge is              1.0000)
       1 -84.3484       2 -84.3521       3 -84.3544       4 -84.3518       5 -84.3488
       6 -84.3523       7 -84.3510       8 -84.3464
 
 
 
 E-fermi :   5.2226     XC(G=0):  -9.5533     alpha+bet :-11.7379


 k-point   1 :       0.0000    0.0000    0.0000
  band No.  band energies     occupation 
      1      -6.6372      2.00000
      2      -2.6461      2.00000
      3      -2.6423      2.00000
      4      -2.6377      2.00000
      5      -2.6265      2.00000
      6      -2.6186      2.00000
      7      -2.6171      2.00000
      8       2.3699      2.00000
      9       2.3724      2.00000
     10       2.3731      2.00000
     11       2.3818      2.00000
     12       2.3831      2.00000
     13       2.3858      2.00000
     14       5.0528      2.00000
     15       5.0538      2.00000
     16       5.0935      2.00000
     17       6.1425      0.00000
     18       6.1450      0.00000
     19       6.1481      0.00000
     20       6.1590      0.00000
     21       6.1615      0.00000
     22       6.1631      0.00000
     23       7.8346      0.00000
     24       7.8566      0.00000
     25       7.8572      0.00000
     26       8.1178      0.00000
     27      13.1845      0.00000
     28      13.1866      0.00000
     29      13.2693      0.00000
     30      15.0812      0.00000
     31      15.0864      0.00000
     32      15.0966      0.00000
     33      15.1130      0.00000
     34      15.1270      0.00000
     35      15.1813      0.00000
     36      16.3235      0.00000
     37      16.3289      0.00000
     38      16.3376      0.00000
     39      16.3599      0.00000
     40      16.4306      0.00000
     41      16.4935      0.00000
     42      16.6995      0.00000
     43      16.7240      0.00000
     44      16.8208      0.00000
     45      17.8879      0.00000
     46      17.8989      0.00000
     47      17.9182      0.00000
     48      17.9384      0.00000


--------------------------------------------------------------------------------------------------------


 soft charge-density along one line, spin component           1
         0         1         2         3         4         5         6         7         8         9
 total charge-density along one line
 
 pseudopotential strength for first ion, spin component:           1
 18.662   0.000   0.000   0.000   0.000   0.000   0.000   0.000
  0.000   0.006   0.000   0.000   0.000   0.000   0.000   0.000
  0.000   0.000   4.216   0.000   0.000  -0.004   0.000   0.000
  0.000   0.000   0.000   4.216   0.000   0.000  -0.004   0.000
  0.000   0.000   0.000   0.000   4.216   0.000   0.000  -0.004
  0.000   0.000  -0.004   0.000   0.000   0.005   0.000   0.000
  0.000   0.000   0.000  -0.004   0.000   0.000   0.005   0.000
  0.000   0.000   0.000   0.000  -0.004   0.000   0.000   0.005
 total augmentation occupancy for first ion, spin component:           1
  2.000   0.000   0.000   0.000   0.000   0.000   0.000   0.000
  0.000   0.000   0.000   0.000   0.000   0.000   0.000   0.000
  0.000   0.000   0.667   0.000   0.000   0.000   0.000   0.000
  0.000   0.000   0.000   0.667   0.000   0.000   0.000   0.000
  0.000   0.000   0.000   0.000   0.667   0.000   0.000   0.000
  0.000   0.000   0.000   0.000   0.000   0.000   0.000   0.000
  0.000   0.000   0.000   0.000   0.000   0.000   0.000   0.000
  0.000   0.000   0.000   0.000   0.000   0.000   0.000   0.000


----------------------------------------- Iteration    1(   4)  ---------------------------------------


     EDDAV:  cpu time    2.01: real time    2.01
       DOS:  cpu time    0.00: real time    0.00
    --------------------------------------------
      LOOP:  cpu time    2.01: real time    2.02

 eigenvalue-minimisations  :   192
 total energy-change (2. order) :-0.3543069E-03  (-0.3543069E-03)
 number of electron      32.0000000 magnetization 
 augmentation part       32.0000000 magnetization 

 Free energy of the ion-electron system (eV)
  ---------------------------------------------------
  alpha Z        PSCENC =        12.68944982
  Ewald energy   TEWEN  =      -907.56698200
  -1/2 Hartree   DENC   =       -45.63603461
  -exchange  EXHF       =         0.00000000
  -V(xc)+E(xc)   XCENC  =       -76.79672182
  PAW double counting   =       265.93453375     -123.69690146
  entropy T*S    EENTRO =         0.00000000
  eigenvalues    EBANDS =        14.08107042
  atomic energy  EATOM  =       826.37398168
  ---------------------------------------------------
  free energy    TOTEN  =       -34.61760422 eV

  energy without entropy =      -34.61760422  energy(sigma->0) =      -34.61760422


--------------------------------------------------------------------------------------------------------




 average (electrostatic) potential at core
  the test charge radii are     0.9892
  (the norm of the test charge is              1.0000)
       1 -84.3484       2 -84.3521       3 -84.3544       4 -84.3518       5 -84.3488
       6 -84.3523       7 -84.3510       8 -84.3464
 
 
 
 E-fermi :   5.2042     XC(G=0):  -9.5533     alpha+bet :-11.7379


 k-point   1 :       0.0000    0.0000    0.0000
  band No.  band energies     occupation 
      1      -6.6372      2.00000
      2      -2.6461      2.00000
      3      -2.6423      2.00000
      4      -2.6377      2.00000
      5      -2.6265      2.00000
      6      -2.6186      2.00000
      7      -2.6171      2.00000
      8       2.3699      2.00000
      9       2.3724      2.00000
     10       2.3731      2.00000
     11       2.3818      2.00000
     12       2.3831      2.00000
     13       2.3858      2.00000
     14       5.0527      2.00000
     15       5.0537      2.00000
     16       5.0935      2.00000
     17       6.1425      0.00000
     18       6.1450      0.00000
     19       6.1481      0.00000
     20       6.1590      0.00000
     21       6.1615      0.00000
     22       6.1630      0.00000
     23       7.8346      0.00000
     24       7.8566      0.00000
     25       7.8572      0.00000
     26       8.1178      0.00000
     27      13.1838      0.00000
     28      13.1838      0.00000
     29      13.2693      0.00000
     30      15.0762      0.00000
     31      15.0821      0.00000
     32      15.0837      0.00000
     33      15.0861      0.00000
     34      15.0887      0.00000
     35      15.0922      0.00000
     36      16.3003      0.00000
     37      16.3018      0.00000
     38      16.3088      0.00000
     39      16.3120      0.00000
     40      16.3161      0.00000
     41      16.3228      0.00000
     42      16.6878      0.00000
     43      16.7124      0.00000
     44      16.7128      0.00000
     45      17.8656      0.00000
     46      17.8749      0.00000
     47      17.8826      0.00000
     48      17.9003      0.00000


--------------------------------------------------------------------------------------------------------


 soft charge-density along one line, spin component           1
         0         1         2         3         4         5         6         7         8         9
 total charge-density along one line
 
 pseudopotential strength for first ion, spin component:           1
 18.662   0.000   0.000   0.000   0.000   0.000   0.000   0.000
  0.000   0.006   0.000   0.000   0.000   0.000   0.000   0.000
  0.000   0.000   4.216   0.000   0.000  -0.004   0.000   0.000
  0.000   0.000   0.000   4.216   0.000   0.000  -0.004   0.000
  0.000   0.000   0.000   0.000   4.216   0.000   0.000  -0.004
  0.000   0.000  -0.004   0.000   0.000   0.005   0.000   0.000
  0.000   0.000   0.000  -0.004   0.000   0.000   0.005   0.000
  0.000   0.000   0.000   0.000  -0.004   0.000   0.000   0.005
 total augmentation occupancy for first ion, spin component:           1
  2.000   0.000   0.000   0.000   0.000   0.000   0.000   0.000
  0.000   0.000   0.000   0.000   0.000   0.000   0.000   0.000
  0.000   0.000   0.667   0.000   0.000   0.000   0.000   0.000
  0.000   0.000   0.000   0.667   0.000   0.000   0.000   0.000
  0.000   0.000   0.000   0.000   0.667   0.000   0.000   0.000
  0.000   0.000   0.000   0.000   0.000   0.000   0.000   0.000
  0.000   0.000   0.000   0.000   0.000   0.000   0.000   0.000
  0.000   0.000   0.000   0.000   0.000   0.000   0.000   0.000


----------------------------------------- Iteration    1(   5)  ---------------------------------------


     EDDAV:  cpu time    0.38: real time    0.38
       DOS:  cpu time    0.00: real time    0.00
    CHARGE:  cpu time    0.03: real time    0.03
    MIXING:  cpu time    0.04: real time    0.04
    --------------------------------------------
      LOOP:  cpu time    0.45: real time    0.46

 eigenvalue-minimisations  :    96
 total energy-change (2. order) :-0.3040100E-08  (-0.3040265E-08)
 number of electron      31.9999999 magnetization 
 augmentation part       -1.8053341 magnetization 

 Broyden mixing:
  rms(total) = 0.79306E+00    rms(broyden)= 0.79301E+00
  rms(prec ) = 0.15229E+01
  weight for this iteration     100.00

 Free energy of the ion-electron system (eV)
  ---------------------------------------------------
  alpha Z        PSCENC =        12.68944982
  Ewald energy   TEWEN  =      -907.56698200
  -1/2 Hartree   DENC   =       -45.63603461
  -exchange  EXHF       =         0.00000000
  -V(xc)+E(xc)   XCENC  =       -76.79672182
  PAW double counting   =       265.93453375     -123.69690146
  entropy T*S    EENTRO =         0.00000000
  eigenvalues    EBANDS =        14.08107042
  atomic energy  EATOM  =       826.37398168
  ---------------------------------------------------
  free energy    TOTEN  =       -34.61760422 eV

  energy without entropy =      -34.61760422  energy(sigma->0) =      -34.61760422


--------------------------------------------------------------------------------------------------------




 average (electrostatic) potential at core
  the test charge radii are     0.9892
  (the norm of the test charge is              1.0000)
       1 -84.3484       2 -84.3521       3 -84.3544       4 -84.3518       5 -84.3488
       6 -84.3523       7 -84.3510       8 -84.3464
 
 
 
 E-fermi :   5.2000     XC(G=0):  -9.5533     alpha+bet :-11.7379


 k-point   1 :       0.0000    0.0000    0.0000
  band No.  band energies     occupation 
      1      -6.6372      2.00000
      2      -2.6461      2.00000
      3      -2.6423      2.00000
      4      -2.6377      2.00000
      5      -2.6265      2.00000
      6      -2.6186      2.00000
      7      -2.6171      2.00000
      8       2.3699      2.00000
      9       2.3724      2.00000
     10       2.3731      2.00000
     11       2.3818      2.00000
     12       2.3831      2.00000
     13       2.3858      2.00000
     14       5.0527      2.00000
     15       5.0537      2.00000
     16       5.0935      2.00000
     17       6.1425      0.00000
     18       6.1450      0.00000
     19       6.1481      0.00000
     20       6.1590      0.00000
     21       6.1615      0.00000
     22       6.1630      0.00000
     23       7.8346      0.00000
     24       7.8566      0.00000
     25       7.8572      0.00000
     26       8.1178      0.00000
     27      13.1838      0.00000
     28      13.1838      0.00000
     29      13.2693      0.00000
     30      15.0762      0.00000
     31      15.0820      0.00000
     32      15.0836      0.00000
     33      15.0860      0.00000
     34      15.0887      0.00000
     35      15.0921      0.00000
     36      16.3001      0.00000
     37      16.3016      0.00000
     38      16.3083      0.00000
     39      16.3118      0.00000
     40      16.3155      0.00000
     41      16.3227      0.00000
     42      16.6877      0.00000
     43      16.7122      0.00000
     44      16.7128      0.00000
     45      17.8605      0.00000
     46      17.8663      0.00000
     47      17.8713      0.00000
     48      17.8915      0.00000


--------------------------------------------------------------------------------------------------------


 soft charge-density along one line, spin component           1
         0         1         2         3         4         5         6         7         8         9
 total charge-density along one line
 
 pseudopotential strength for first ion, spin component:           1
 18.662   0.000   0.000   0.000   0.000   0.000   0.000   0.000
  0.000   0.006   0.000   0.000   0.000   0.000   0.000   0.000
  0.000   0.000   4.216   0.000   0.000  -0.004   0.000   0.000
  0.000   0.000   0.000   4.216   0.000   0.000  -0.004   0.000
  0.000   0.000   0.000   0.000   4.216   0.000   0.000  -0.004
  0.000   0.000  -0.004   0.000   0.000   0.005   0.000   0.000
  0.000   0.000   0.000  -0.004   0.000   0.000   0.005   0.000
  0.000   0.000   0.000   0.000  -0.004   0.000   0.000   0.005
 total augmentation occupancy for first ion, spin component:           1
  1.380  -1.051   0.001   0.001  -0.001   0.000  -0.001   0.000
 -1.051   0.917   0.000  -0.001   0.000   0.000   0.002   0.000
  0.001   0.000   1.165   0.000   0.001  -0.758   0.000  -0.002
  0.001  -0.001   0.000   1.163   0.000   0.000  -0.757   0.001
 -0.001   0.000   0.001   0.000   1.165  -0.002   0.001  -0.758
  0.000   0.000  -0.758   0.000  -0.002   0.569   0.000   0.003
 -0.001   0.002   0.000  -0.757   0.001   0.000   0.568  -0.001
  0.000   0.000  -0.002   0.001  -0.758   0.003  -0.001   0.569


----------------------------------------- Iteration    1(   6)  ---------------------------------------


    POTLOK:  cpu time    0.02: real time    0.02
    SETDIJ:  cpu time    0.02: real time    0.02
    EDDIAG:  cpu time    0.03: real time    0.03
  RMM-DIIS:  cpu time    0.04: real time    0.04
    ORTHCH:  cpu time    0.01: real time    0.01
       DOS:  cpu time    0.00: real time    0.00
    CHARGE:  cpu time    0.02: real time    0.02
    MIXING:  cpu time    0.00: real time    0.00
    --------------------------------------------
      LOOP:  cpu time    0.14: real time    0.15

 eigenvalue-minimisations  :    96
 total energy-change (2. order) : 0.1001722E+01  (-0.3198578E-01)
 number of electron      31.9999999 magnetization 
 augmentation part       -1.7684037 magnetization 

 Broyden mixing:
  rms(total) = 0.47400E+00    rms(broyden)= 0.47400E+00
  rms(prec ) = 0.91067E+00
  weight for this iteration     100.00

 eigenvalues of (default mixing * dielectric matrix)
  average eigenvalue GAMMA=   2.4573
  2.4573

 Free energy of the ion-electron system (eV)
  ---------------------------------------------------
  alpha Z        PSCENC =        12.68944982
  Ewald energy   TEWEN  =      -907.56698200
  -1/2 Hartree   DENC   =       -54.68261160
  -exchange  EXHF       =         0.00000000
  -V(xc)+E(xc)   XCENC  =       -75.44940573
  PAW double counting   =       286.06086599     -144.35918062
  entropy T*S    EENTRO =         0.00000000
  eigenvalues    EBANDS =        23.31800064
  atomic energy  EATOM  =       826.37398168
  ---------------------------------------------------
  free energy    TOTEN  =       -33.61588181 eV

  energy without entropy =      -33.61588181  energy(sigma->0) =      -33.61588181


--------------------------------------------------------------------------------------------------------




 average (electrostatic) potential at core
  the test charge radii are     0.9892
  (the norm of the test charge is              1.0000)
       1 -83.8317       2 -83.8335       3 -83.8347       4 -83.8334       5 -83.8319
       6 -83.8336       7 -83.8330       8 -83.8308
 
 
 
 E-fermi :   5.5629     XC(G=0):  -9.4504     alpha+bet :-11.7379


 k-point   1 :       0.0000    0.0000    0.0000
  band No.  band energies     occupation 
      1      -6.3787      2.00000
      2      -2.3461      2.00000
      3      -2.3428      2.00000
      4      -2.3388      2.00000
      5      -2.3272      2.00000
      6      -2.3207      2.00000
      7      -2.3192      2.00000
      8       2.6317      2.00000
      9       2.6339      2.00000
     10       2.6344      2.00000
     11       2.6427      2.00000
     12       2.6438      2.00000
     13       2.6460      2.00000
     14       5.3864      2.00000
     15       5.3874      2.00000
     16       5.4264      2.00000
     17       6.2575      0.00000
     18       6.2597      0.00000
     19       6.2624      0.00000
     20       6.2734      0.00000
     21       6.2757      0.00000
     22       6.2770      0.00000
     23       8.0417      0.00000
     24       8.0641      0.00000
     25       8.0647      0.00000
     26       8.4862      0.00000
     27      13.3050      0.00000
     28      13.3569      0.00000
     29      13.3569      0.00000
     30      15.3729      0.00000
     31      15.3780      0.00000
     32      15.3795      0.00000
     33      15.3825      0.00000
     34      15.3848      0.00000
     35      15.3879      0.00000
     36      16.5368      0.00000
     37      16.5382      0.00000
     38      16.5442      0.00000
     39      16.5476      0.00000
     40      16.5509      0.00000
     41      16.5574      0.00000
     42      16.7320      0.00000
     43      16.7569      0.00000
     44      16.7575      0.00000
     45      18.1505      0.00000
     46      18.1536      0.00000
     47      18.1607      0.00000
     48      18.1799      0.00000


--------------------------------------------------------------------------------------------------------


 soft charge-density along one line, spin component           1
         0         1         2         3         4         5         6         7         8         9
 total charge-density along one line
 
 pseudopotential strength for first ion, spin component:           1
 18.635  -0.001   0.000   0.000   0.000   0.000   0.000   0.000
 -0.001   0.006   0.000   0.000   0.000   0.000   0.000   0.000
  0.000   0.000   4.221   0.000   0.000  -0.004   0.000   0.000
  0.000   0.000   0.000   4.221   0.000   0.000  -0.004   0.000
  0.000   0.000   0.000   0.000   4.221   0.000   0.000  -0.004
  0.000   0.000  -0.004   0.000   0.000   0.005   0.000   0.000
  0.000   0.000   0.000  -0.004   0.000   0.000   0.005   0.000
  0.000   0.000   0.000   0.000  -0.004   0.000   0.000   0.005
 total augmentation occupancy for first ion, spin component:           1
  1.351  -1.089   0.001   0.001   0.000   0.000  -0.002   0.001
 -1.089   0.995   0.000  -0.001   0.000   0.000   0.002   0.000
  0.001   0.000   1.148   0.000   0.001  -0.782   0.000  -0.002
  0.001  -0.001   0.000   1.146   0.000   0.000  -0.780   0.001
  0.000   0.000   0.001   0.000   1.147  -0.002   0.001  -0.781
  0.000   0.000  -0.782   0.000  -0.002   0.608   0.000   0.002
 -0.002   0.002   0.000  -0.780   0.001   0.000   0.606  -0.001
  0.001   0.000  -0.002   0.001  -0.781   0.002  -0.001   0.607


----------------------------------------- Iteration    1(   7)  ---------------------------------------


    POTLOK:  cpu time    0.02: real time    0.02
    SETDIJ:  cpu time    0.02: real time    0.02
    EDDIAG:  cpu time    0.02: real time    0.02
  RMM-DIIS:  cpu time    0.04: real time    0.04
    ORTHCH:  cpu time    0.01: real time    0.01
       DOS:  cpu time    0.00: real time    0.00
    CHARGE:  cpu time    0.02: real time    0.02
    MIXING:  cpu time    0.00: real time    0.00
    --------------------------------------------
      LOOP:  cpu time    0.13: real time    0.13

 eigenvalue-minimisations  :    96
 total energy-change (2. order) : 0.4246710E+00  (-0.7389622E-01)
 number of electron      31.9999999 magnetization 
 augmentation part       -1.7214498 magnetization 

 Broyden mixing:
  rms(total) = 0.46248E-01    rms(broyden)= 0.46238E-01
  rms(prec ) = 0.78449E-01
  weight for this iteration     100.00

 eigenvalues of (default mixing * dielectric matrix)
  average eigenvalue GAMMA=   2.5302
  2.5302  2.5302

 Free energy of the ion-electron system (eV)
  ---------------------------------------------------
  alpha Z        PSCENC =        12.68944982
  Ewald energy   TEWEN  =      -907.56698200
  -1/2 Hartree   DENC   =       -70.51393350
  -exchange  EXHF       =         0.00000000
  -V(xc)+E(xc)   XCENC  =       -73.00921093
  PAW double counting   =       313.72545458     -172.73749176
  entropy T*S    EENTRO =         0.00000000
  eigenvalues    EBANDS =        37.84752129
  atomic energy  EATOM  =       826.37398168
  ---------------------------------------------------
  free energy    TOTEN  =       -33.19121083 eV

  energy without entropy =      -33.19121083  energy(sigma->0) =      -33.19121083


--------------------------------------------------------------------------------------------------------




 average (electrostatic) potential at core
  the test charge radii are     0.9892
  (the norm of the test charge is              1.0000)
       1 -83.1444       2 -83.1462       3 -83.1465       4 -83.1465       5 -83.1451
       6 -83.1456       7 -83.1457       8 -83.1442
 
 
 
 E-fermi :   6.0995     XC(G=0):  -9.2018     alpha+bet :-11.7379


 k-point   1 :       0.0000    0.0000    0.0000
  band No.  band energies     occupation 
      1      -5.9621      2.00000
      2      -1.8788      2.00000
      3      -1.8760      2.00000
      4      -1.8723      2.00000
      5      -1.8603      2.00000
      6      -1.8551      2.00000
      7      -1.8535      2.00000
      8       3.0451      2.00000
      9       3.0470      2.00000
     10       3.0473      2.00000
     11       3.0551      2.00000
     12       3.0558      2.00000
     13       3.0577      2.00000
     14       5.9113      2.00000
     15       5.9123      2.00000
     16       5.9503      2.00000
     17       6.5164      0.00000
     18       6.5183      0.00000
     19       6.5206      0.00000
     20       6.5318      0.00000
     21       6.5339      0.00000
     22       6.5348      0.00000
     23       8.3665      0.00000
     24       8.3894      0.00000
     25       8.3900      0.00000
     26       9.0452      0.00000
     27      13.6013      0.00000
     28      13.6205      0.00000
     29      13.6205      0.00000
     30      15.8234      0.00000
     31      15.8277      0.00000
     32      15.8293      0.00000
     33      15.8329      0.00000
     34      15.8346      0.00000
     35      15.8376      0.00000
     36      16.8867      0.00000
     37      16.9112      0.00000
     38      16.9122      0.00000
     39      16.9573      0.00000
     40      16.9583      0.00000
     41      16.9633      0.00000
     42      16.9667      0.00000
     43      16.9696      0.00000
     44      16.9758      0.00000
     45      18.6458      0.00000
     46      18.6531      0.00000
     47      18.6632      0.00000
     48      18.6807      0.00000


--------------------------------------------------------------------------------------------------------


 soft charge-density along one line, spin component           1
         0         1         2         3         4         5         6         7         8         9
 total charge-density along one line
 
 pseudopotential strength for first ion, spin component:           1
 18.596  -0.001   0.000   0.000   0.000   0.000   0.000   0.000
 -0.001   0.006   0.000   0.000   0.000   0.000   0.000   0.000
  0.000   0.000   4.227   0.000   0.000  -0.005   0.000   0.000
  0.000   0.000   0.000   4.227   0.000   0.000  -0.005   0.000
  0.000   0.000   0.000   0.000   4.227   0.000   0.000  -0.005
  0.000   0.000  -0.005   0.000   0.000   0.005   0.000   0.000
  0.000   0.000   0.000  -0.005   0.000   0.000   0.005   0.000
  0.000   0.000   0.000   0.000  -0.005   0.000   0.000   0.005
 total augmentation occupancy for first ion, spin component:           1
  1.315  -1.111   0.001   0.001   0.000  -0.001  -0.002   0.001
 -1.111   1.056   0.001  -0.001   0.000   0.000   0.002   0.000
  0.001   0.001   1.123   0.000   0.001  -0.805   0.000  -0.002
  0.001  -0.001   0.000   1.121   0.000   0.000  -0.803   0.000
  0.000   0.000   0.001   0.000   1.122  -0.002   0.000  -0.804
 -0.001   0.000  -0.805   0.000  -0.002   0.652   0.000   0.002
 -0.002   0.002   0.000  -0.803   0.000   0.000   0.650  -0.001
  0.001   0.000  -0.002   0.000  -0.804   0.002  -0.001   0.651


----------------------------------------- Iteration    1(   8)  ---------------------------------------


    POTLOK:  cpu time    0.02: real time    0.02
    SETDIJ:  cpu time    0.02: real time    0.02
    EDDIAG:  cpu time    0.02: real time    0.02
  RMM-DIIS:  cpu time    0.02: real time    0.02
    ORTHCH:  cpu time    0.01: real time    0.01
       DOS:  cpu time    0.00: real time    0.00
    CHARGE:  cpu time    0.02: real time    0.02
    MIXING:  cpu time    0.00: real time    0.00
    --------------------------------------------
      LOOP:  cpu time    0.11: real time    0.12

 eigenvalue-minimisations  :    96
 total energy-change (2. order) :-0.3198480E-01  (-0.2162211E-02)
 number of electron      31.9999999 magnetization 
 augmentation part       -1.7275452 magnetization 

 Broyden mixing:
  rms(total) = 0.74801E-02    rms(broyden)= 0.74796E-02
  rms(prec ) = 0.17935E-01
  weight for this iteration     100.00

 eigenvalues of (default mixing * dielectric matrix)
  average eigenvalue GAMMA=   2.1213
  1.2741  2.8651  2.2247

 Free energy of the ion-electron system (eV)
  ---------------------------------------------------
  alpha Z        PSCENC =        12.68944982
  Ewald energy   TEWEN  =      -907.56698200
  -1/2 Hartree   DENC   =       -70.39893020
  -exchange  EXHF       =         0.00000000
  -V(xc)+E(xc)   XCENC  =       -72.96563784
  PAW double counting   =       307.36216047     -166.18935751
  entropy T*S    EENTRO =         0.00000000
  eigenvalues    EBANDS =        37.47211995
  atomic energy  EATOM  =       826.37398168
  ---------------------------------------------------
  free energy    TOTEN  =       -33.22319563 eV

  energy without entropy =      -33.22319563  energy(sigma->0) =      -33.22319563


--------------------------------------------------------------------------------------------------------




 average (electrostatic) potential at core
  the test charge radii are     0.9892
  (the norm of the test charge is              1.0000)
       1 -83.2466       2 -83.2496       3 -83.2512       4 -83.2496       5 -83.2471
       6 -83.2496       7 -83.2488       8 -83.2453
 
 
 
 E-fermi :   6.0386     XC(G=0):  -9.1504     alpha+bet :-11.7379


 k-point   1 :       0.0000    0.0000    0.0000
  band No.  band energies     occupation 
      1      -5.9632      2.00000
      2      -1.8909      2.00000
      3      -1.8878      2.00000
      4      -1.8840      2.00000
      5      -1.8721      2.00000
      6      -1.8661      2.00000
      7      -1.8646      2.00000
      8       3.0334      2.00000
      9       3.0353      2.00000
     10       3.0357      2.00000
     11       3.0436      2.00000
     12       3.0444      2.00000
     13       3.0466      2.00000
     14       5.8952      2.00000
     15       5.8962      2.00000
     16       5.9343      2.00000
     17       6.5670      0.00000
     18       6.5691      0.00000
     19       6.5715      0.00000
     20       6.5827      0.00000
     21       6.5850      0.00000
     22       6.5860      0.00000
     23       8.3560      0.00000
     24       8.3787      0.00000
     25       8.3793      0.00000
     26       9.0381      0.00000
     27      13.6065      0.00000
     28      13.6065      0.00000
     29      13.7784      0.00000
     30      15.8085      0.00000
     31      15.8132      0.00000
     32      15.8148      0.00000
     33      15.8181      0.00000
     34      15.8198      0.00000
     35      15.8231      0.00000
     36      16.9239      0.00000
     37      16.9472      0.00000
     38      16.9489      0.00000
     39      16.9641      0.00000
     40      16.9645      0.00000
     41      16.9697      0.00000
     42      16.9731      0.00000
     43      16.9762      0.00000
     44      16.9830      0.00000
     45      18.6808      0.00000
     46      18.6910      0.00000
     47      18.7011      0.00000
     48      18.7192      0.00000


--------------------------------------------------------------------------------------------------------


 soft charge-density along one line, spin component           1
         0         1         2         3         4         5         6         7         8         9
 total charge-density along one line
 
 pseudopotential strength for first ion, spin component:           1
 18.599  -0.001   0.000   0.000   0.000   0.000   0.000   0.000
 -0.001   0.006   0.000   0.000   0.000   0.000   0.000   0.000
  0.000   0.000   4.224   0.000   0.000  -0.005   0.000   0.000
  0.000   0.000   0.000   4.224   0.000   0.000  -0.005   0.000
  0.000   0.000   0.000   0.000   4.224   0.000   0.000  -0.005
  0.000   0.000  -0.005   0.000   0.000   0.005   0.000   0.000
  0.000   0.000   0.000  -0.005   0.000   0.000   0.005   0.000
  0.000   0.000   0.000   0.000  -0.005   0.000   0.000   0.005
 total augmentation occupancy for first ion, spin component:           1
  1.320  -1.091   0.001   0.001   0.000  -0.001  -0.002   0.000
 -1.091   1.019   0.001  -0.001   0.000   0.000   0.002   0.000
  0.001   0.001   1.124   0.000   0.001  -0.801   0.000  -0.002
  0.001  -0.001   0.000   1.122   0.000   0.000  -0.799   0.001
  0.000   0.000   0.001   0.000   1.123  -0.002   0.001  -0.800
 -0.001   0.000  -0.801   0.000  -0.002   0.647   0.000   0.003
 -0.002   0.002   0.000  -0.799   0.001   0.000   0.645  -0.001
  0.000   0.000  -0.002   0.001  -0.800   0.003  -0.001   0.646


----------------------------------------- Iteration    1(   9)  ---------------------------------------


    POTLOK:  cpu time    0.02: real time    0.02
    SETDIJ:  cpu time    0.02: real time    0.02
    EDDIAG:  cpu time    0.02: real time    0.02
  RMM-DIIS:  cpu time    0.03: real time    0.03
    ORTHCH:  cpu time    0.01: real time    0.01
       DOS:  cpu time    0.00: real time    0.00
    CHARGE:  cpu time    0.02: real time    0.02
    MIXING:  cpu time    0.00: real time    0.00
    --------------------------------------------
      LOOP:  cpu time    0.12: real time    0.12

 eigenvalue-minimisations  :   108
 total energy-change (2. order) :-0.1130595E-02  (-0.1262813E-03)
 number of electron      31.9999999 magnetization 
 augmentation part       -1.7274605 magnetization 

 Broyden mixing:
  rms(total) = 0.41711E-02    rms(broyden)= 0.41710E-02
  rms(prec ) = 0.68346E-02
  weight for this iteration     100.00

 eigenvalues of (default mixing * dielectric matrix)
  average eigenvalue GAMMA=   2.3140
  0.9908  3.2811  2.6990  2.2852

 Free energy of the ion-electron system (eV)
  ---------------------------------------------------
  alpha Z        PSCENC =        12.68944982
  Ewald energy   TEWEN  =      -907.56698200
  -1/2 Hartree   DENC   =       -70.79566358
  -exchange  EXHF       =         0.00000000
  -V(xc)+E(xc)   XCENC  =       -72.90640661
  PAW double counting   =       307.71477703     -166.55243047
  entropy T*S    EENTRO =         0.00000000
  eigenvalues    EBANDS =        37.81894791
  atomic energy  EATOM  =       826.37398168
  ---------------------------------------------------
  free energy    TOTEN  =       -33.22432622 eV

  energy without entropy =      -33.22432622  energy(sigma->0) =      -33.22432622


--------------------------------------------------------------------------------------------------------




 average (electrostatic) potential at core
  the test charge radii are     0.9892
  (the norm of the test charge is              1.0000)
       1 -83.2330       2 -83.2350       3 -83.2363       4 -83.2348       5 -83.2331
       6 -83.2352       7 -83.2344       8 -83.2318
 
 
 
 E-fermi :   6.0534     XC(G=0):  -9.1362     alpha+bet :-11.7379


 k-point   1 :       0.0000    0.0000    0.0000
  band No.  band energies     occupation 
      1      -5.9519      2.00000
      2      -1.8795      2.00000
      3      -1.8765      2.00000
      4      -1.8728      2.00000
      5      -1.8609      2.00000
      6      -1.8551      2.00000
      7      -1.8536      2.00000
      8       3.0433      2.00000
      9       3.0452      2.00000
     10       3.0455      2.00000
     11       3.0534      2.00000
     12       3.0542      2.00000
     13       3.0563      2.00000
     14       5.9073      2.00000
     15       5.9083      2.00000
     16       5.9463      2.00000
     17       6.5811      0.00000
     18       6.5831      0.00000
     19       6.5856      0.00000
     20       6.5967      0.00000
     21       6.5990      0.00000
     22       6.6001      0.00000
     23       8.3636      0.00000
     24       8.3863      0.00000
     25       8.3869      0.00000
     26       9.0526      0.00000
     27      13.6117      0.00000
     28      13.6117      0.00000
     29      13.8106      0.00000
     30      15.8191      0.00000
     31      15.8238      0.00000
     32      15.8252      0.00000
     33      15.8286      0.00000
     34      15.8304      0.00000
     35      15.8336      0.00000
     36      16.9339      0.00000
     37      16.9573      0.00000
     38      16.9589      0.00000
     39      16.9762      0.00000
     40      16.9767      0.00000
     41      16.9818      0.00000
     42      16.9852      0.00000
     43      16.9883      0.00000
     44      16.9949      0.00000
     45      18.6988      0.00000
     46      18.7092      0.00000
     47      18.7197      0.00000
     48      18.7376      0.00000


--------------------------------------------------------------------------------------------------------


 soft charge-density along one line, spin component           1
         0         1         2         3         4         5         6         7         8         9
 total charge-density along one line
 
 pseudopotential strength for first ion, spin component:           1
 18.598  -0.001   0.000   0.000   0.000   0.000   0.000   0.000
 -0.001   0.006   0.000   0.000   0.000   0.000   0.000   0.000
  0.000   0.000   4.224   0.000   0.000  -0.005   0.000   0.000
  0.000   0.000   0.000   4.224   0.000   0.000  -0.005   0.000
  0.000   0.000   0.000   0.000   4.224   0.000   0.000  -0.005
  0.000   0.000  -0.005   0.000   0.000   0.005   0.000   0.000
  0.000   0.000   0.000  -0.005   0.000   0.000   0.005   0.000
  0.000   0.000   0.000   0.000  -0.005   0.000   0.000   0.005
 total augmentation occupancy for first ion, spin component:           1
  1.320  -1.086   0.001   0.001   0.000  -0.001  -0.002   0.000
 -1.086   1.011   0.001  -0.001   0.000   0.000   0.002   0.000
  0.001   0.001   1.124   0.000   0.001  -0.801   0.000  -0.002
  0.001  -0.001   0.000   1.122   0.000   0.000  -0.799   0.001
  0.000   0.000   0.001   0.000   1.123  -0.002   0.001  -0.800
 -0.001   0.000  -0.801   0.000  -0.002   0.647   0.000   0.003
 -0.002   0.002   0.000  -0.799   0.001   0.000   0.645  -0.001
  0.000   0.000  -0.002   0.001  -0.800   0.003  -0.001   0.646


----------------------------------------- Iteration    1(  10)  ---------------------------------------


    POTLOK:  cpu time    0.02: real time    0.02
    SETDIJ:  cpu time    0.01: real time    0.02
    EDDIAG:  cpu time    0.02: real time    0.02
  RMM-DIIS:  cpu time    0.04: real time    0.04
    ORTHCH:  cpu time    0.00: real time    0.01
       DOS:  cpu time    0.00: real time    0.00
    CHARGE:  cpu time    0.02: real time    0.02
    MIXING:  cpu time    0.00: real time    0.00
    --------------------------------------------
      LOOP:  cpu time    0.13: real time    0.13

 eigenvalue-minimisations  :   104
 total energy-change (2. order) :-0.1837317E-03  (-0.2507722E-04)
 number of electron      31.9999999 magnetization 
 augmentation part       -1.7273304 magnetization 

 Broyden mixing:
  rms(total) = 0.51818E-03    rms(broyden)= 0.51779E-03
  rms(prec ) = 0.99882E-03
  weight for this iteration     100.00

 eigenvalues of (default mixing * dielectric matrix)
  average eigenvalue GAMMA=   2.0339
  3.0977  2.6305  2.1746  0.9761  1.2905

 Free energy of the ion-electron system (eV)
  ---------------------------------------------------
  alpha Z        PSCENC =        12.68944982
  Ewald energy   TEWEN  =      -907.56698200
  -1/2 Hartree   DENC   =       -70.84872538
  -exchange  EXHF       =         0.00000000
  -V(xc)+E(xc)   XCENC  =       -72.90961774
  PAW double counting   =       307.80704772     -166.65110757
  entropy T*S    EENTRO =         0.00000000
  eigenvalues    EBANDS =        37.88144351
  atomic energy  EATOM  =       826.37398168
  ---------------------------------------------------
  free energy    TOTEN  =       -33.22450996 eV

  energy without entropy =      -33.22450996  energy(sigma->0) =      -33.22450996


--------------------------------------------------------------------------------------------------------




 average (electrostatic) potential at core
  the test charge radii are     0.9892
  (the norm of the test charge is              1.0000)
       1 -83.2245       2 -83.2260       3 -83.2269       4 -83.2258       5 -83.2246
       6 -83.2261       7 -83.2255       8 -83.2236
 
 
 
 E-fermi :   6.0580     XC(G=0):  -9.1306     alpha+bet :-11.7379


 k-point   1 :       0.0000    0.0000    0.0000
  band No.  band energies     occupation 
      1      -5.9495      2.00000
      2      -1.8773      2.00000
      3      -1.8744      2.00000
      4      -1.8707      2.00000
      5      -1.8588      2.00000
      6      -1.8532      2.00000
      7      -1.8517      2.00000
      8       3.0451      2.00000
      9       3.0469      2.00000
     10       3.0472      2.00000
     11       3.0551      2.00000
     12       3.0559      2.00000
     13       3.0579      2.00000
     14       5.9095      2.00000
     15       5.9104      2.00000
     16       5.9484      2.00000
     17       6.5865      0.00000
     18       6.5885      0.00000
     19       6.5910      0.00000
     20       6.6021      0.00000
     21       6.6044      0.00000
     22       6.6054      0.00000
     23       8.3646      0.00000
     24       8.3873      0.00000
     25       8.3879      0.00000
     26       9.0564      0.00000
     27      13.6117      0.00000
     28      13.6118      0.00000
     29      13.8268      0.00000
     30      15.8210      0.00000
     31      15.8256      0.00000
     32      15.8271      0.00000
     33      15.8305      0.00000
     34      15.8323      0.00000
     35      15.8354      0.00000
     36      16.9381      0.00000
     37      16.9613      0.00000
     38      16.9629      0.00000
     39      16.9791      0.00000
     40      16.9795      0.00000
     41      16.9845      0.00000
     42      16.9879      0.00000
     43      16.9909      0.00000
     44      16.9976      0.00000
     45      18.7062      0.00000
     46      18.7161      0.00000
     47      18.7265      0.00000
     48      18.7446      0.00000


--------------------------------------------------------------------------------------------------------


 soft charge-density along one line, spin component           1
         0         1         2         3         4         5         6         7         8         9
 total charge-density along one line
 
 pseudopotential strength for first ion, spin component:           1
 18.597  -0.001   0.000   0.000   0.000   0.000   0.000   0.000
 -0.001   0.006   0.000   0.000   0.000   0.000   0.000   0.000
  0.000   0.000   4.224   0.000   0.000  -0.005   0.000   0.000
  0.000   0.000   0.000   4.224   0.000   0.000  -0.005   0.000
  0.000   0.000   0.000   0.000   4.224   0.000   0.000  -0.005
  0.000   0.000  -0.005   0.000   0.000   0.005   0.000   0.000
  0.000   0.000   0.000  -0.005   0.000   0.000   0.005   0.000
  0.000   0.000   0.000   0.000  -0.005   0.000   0.000   0.005
 total augmentation occupancy for first ion, spin component:           1
  1.320  -1.086   0.001   0.001   0.000  -0.001  -0.002   0.000
 -1.086   1.011   0.001  -0.001   0.000   0.000   0.002   0.000
  0.001   0.001   1.123   0.000   0.001  -0.801   0.000  -0.002
  0.001  -0.001   0.000   1.121   0.000   0.000  -0.800   0.001
  0.000   0.000   0.001   0.000   1.123  -0.002   0.001  -0.801
 -0.001   0.000  -0.801   0.000  -0.002   0.648   0.000   0.003
 -0.002   0.002   0.000  -0.800   0.001   0.000   0.646  -0.001
  0.000   0.000  -0.002   0.001  -0.801   0.003  -0.001   0.647


----------------------------------------- Iteration    1(  11)  ---------------------------------------


    POTLOK:  cpu time    0.02: real time    0.02
    SETDIJ:  cpu time    0.02: real time    0.02
    EDDIAG:  cpu time    0.02: real time    0.02
  RMM-DIIS:  cpu time    0.03: real time    0.03
    ORTHCH:  cpu time    0.01: real time    0.01
       DOS:  cpu time    0.00: real time    0.00
    CHARGE:  cpu time    0.02: real time    0.02
    MIXING:  cpu time    0.00: real time    0.00
    --------------------------------------------
      LOOP:  cpu time    0.11: real time    0.12

 eigenvalue-minimisations  :   116
 total energy-change (2. order) : 0.4119688E-05  (-0.3737947E-06)
 number of electron      31.9999999 magnetization 
 augmentation part       -1.7274361 magnetization 

 Broyden mixing:
  rms(total) = 0.14902E-03    rms(broyden)= 0.14897E-03
  rms(prec ) = 0.28624E-03
  weight for this iteration     100.00

 eigenvalues of (default mixing * dielectric matrix)
  average eigenvalue GAMMA=   1.9814
  3.2076  2.7029  2.1144  1.9218  0.9707  0.9707

 Free energy of the ion-electron system (eV)
  ---------------------------------------------------
  alpha Z        PSCENC =        12.68944982
  Ewald energy   TEWEN  =      -907.56698200
  -1/2 Hartree   DENC   =       -70.82834322
  -exchange  EXHF       =         0.00000000
  -V(xc)+E(xc)   XCENC  =       -72.91085008
  PAW double counting   =       307.73615119     -166.57739077
  entropy T*S    EENTRO =         0.00000000
  eigenvalues    EBANDS =        37.85947754
  atomic energy  EATOM  =       826.37398168
  ---------------------------------------------------
  free energy    TOTEN  =       -33.22450584 eV

  energy without entropy =      -33.22450584  energy(sigma->0) =      -33.22450584


--------------------------------------------------------------------------------------------------------




 average (electrostatic) potential at core
  the test charge radii are     0.9892
  (the norm of the test charge is              1.0000)
       1 -83.2266       2 -83.2284       3 -83.2296       4 -83.2282       5 -83.2267
       6 -83.2286       7 -83.2279       8 -83.2256
 
 
 
 E-fermi :   6.0575     XC(G=0):  -9.1314     alpha+bet :-11.7379


 k-point   1 :       0.0000    0.0000    0.0000
  band No.  band energies     occupation 
      1      -5.9502      2.00000
      2      -1.8781      2.00000
      3      -1.8751      2.00000
      4      -1.8715      2.00000
      5      -1.8596      2.00000
      6      -1.8538      2.00000
      7      -1.8524      2.00000
      8       3.0444      2.00000
      9       3.0463      2.00000
     10       3.0466      2.00000
     11       3.0545      2.00000
     12       3.0553      2.00000
     13       3.0573      2.00000
     14       5.9087      2.00000
     15       5.9097      2.00000
     16       5.9476      2.00000
     17       6.5857      0.00000
     18       6.5878      0.00000
     19       6.5902      0.00000
     20       6.6013      0.00000
     21       6.6036      0.00000
     22       6.6046      0.00000
     23       8.3642      0.00000
     24       8.3868      0.00000
     25       8.3874      0.00000
     26       9.0553      0.00000
     27      13.6115      0.00000
     28      13.6115      0.00000
     29      13.8249      0.00000
     30      15.8202      0.00000
     31      15.8249      0.00000
     32      15.8264      0.00000
     33      15.8298      0.00000
     34      15.8315      0.00000
     35      15.8347      0.00000
     36      16.9375      0.00000
     37      16.9607      0.00000
     38      16.9624      0.00000
     39      16.9784      0.00000
     40      16.9788      0.00000
     41      16.9839      0.00000
     42      16.9873      0.00000
     43      16.9903      0.00000
     44      16.9970      0.00000
     45      18.7077      0.00000
     46      18.7162      0.00000
     47      18.7259      0.00000
     48      18.7442      0.00000


--------------------------------------------------------------------------------------------------------


 soft charge-density along one line, spin component           1
         0         1         2         3         4         5         6         7         8         9
 total charge-density along one line
 
 pseudopotential strength for first ion, spin component:           1
 18.597  -0.001   0.000   0.000   0.000   0.000   0.000   0.000
 -0.001   0.006   0.000   0.000   0.000   0.000   0.000   0.000
  0.000   0.000   4.224   0.000   0.000  -0.005   0.000   0.000
  0.000   0.000   0.000   4.224   0.000   0.000  -0.005   0.000
  0.000   0.000   0.000   0.000   4.224   0.000   0.000  -0.005
  0.000   0.000  -0.005   0.000   0.000   0.005   0.000   0.000
  0.000   0.000   0.000  -0.005   0.000   0.000   0.005   0.000
  0.000   0.000   0.000   0.000  -0.005   0.000   0.000   0.005
 total augmentation occupancy for first ion, spin component:           1
  1.320  -1.086   0.001   0.001   0.000  -0.001  -0.002   0.000
 -1.086   1.010   0.001  -0.001   0.000   0.000   0.002   0.000
  0.001   0.001   1.123   0.000   0.001  -0.801   0.000  -0.002
  0.001  -0.001   0.000   1.122   0.000   0.000  -0.800   0.001
  0.000   0.000   0.001   0.000   1.123  -0.002   0.001  -0.801
 -0.001   0.000  -0.801   0.000  -0.002   0.648   0.000   0.003
 -0.002   0.002   0.000  -0.800   0.001   0.000   0.646  -0.001
  0.000   0.000  -0.002   0.001  -0.801   0.003  -0.001   0.647


----------------------------------------- Iteration    1(  12)  ---------------------------------------


    POTLOK:  cpu time    0.02: real time    0.02
    SETDIJ:  cpu time    0.02: real time    0.02
    EDDIAG:  cpu time    0.02: real time    0.02
  RMM-DIIS:  cpu time    0.02: real time    0.02
    ORTHCH:  cpu time    0.01: real time    0.01
       DOS:  cpu time    0.00: real time    0.00
    CHARGE:  cpu time    0.03: real time    0.03
    MIXING:  cpu time    0.00: real time    0.00
    --------------------------------------------
      LOOP:  cpu time    0.12: real time    0.13

 eigenvalue-minimisations  :   128
 total energy-change (2. order) :-0.4767272E-06  (-0.4403391E-07)
 number of electron      31.9999999 magnetization 
 augmentation part       -1.7274257 magnetization 

 Broyden mixing:
  rms(total) = 0.57315E-04    rms(broyden)= 0.57287E-04
  rms(prec ) = 0.82248E-04
  weight for this iteration     100.00

 eigenvalues of (default mixing * dielectric matrix)
  average eigenvalue GAMMA=   1.9907
  3.1978  2.7375  2.4638  2.0945  1.4874  0.9959  0.9582

 Free energy of the ion-electron system (eV)
  ---------------------------------------------------
  alpha Z        PSCENC =        12.68944982
  Ewald energy   TEWEN  =      -907.56698200
  -1/2 Hartree   DENC   =       -70.83216538
  -exchange  EXHF       =         0.00000000
  -V(xc)+E(xc)   XCENC  =       -72.91080206
  PAW double counting   =       307.74133723     -166.58268010
  entropy T*S    EENTRO =         0.00000000
  eigenvalues    EBANDS =        37.86335449
  atomic energy  EATOM  =       826.37398168
  ---------------------------------------------------
  free energy    TOTEN  =       -33.22450631 eV

  energy without entropy =      -33.22450631  energy(sigma->0) =      -33.22450631


--------------------------------------------------------------------------------------------------------




 average (electrostatic) potential at core
  the test charge radii are     0.9892
  (the norm of the test charge is              1.0000)
       1 -83.2261       2 -83.2280       3 -83.2292       4 -83.2279       5 -83.2262
       6 -83.2282       7 -83.2275       8 -83.2251
 
 
 
 E-fermi :   6.0580     XC(G=0):  -9.1311     alpha+bet :-11.7379


 k-point   1 :       0.0000    0.0000    0.0000
  band No.  band energies     occupation 
      1      -5.9500      2.00000
      2      -1.8780      2.00000
      3      -1.8750      2.00000
      4      -1.8713      2.00000
      5      -1.8594      2.00000
      6      -1.8537      2.00000
      7      -1.8522      2.00000
      8       3.0445      2.00000
      9       3.0464      2.00000
     10       3.0467      2.00000
     11       3.0546      2.00000
     12       3.0554      2.00000
[...]
    MIXING:  cpu time    0.00: real time    0.00
    --------------------------------------------
      LOOP:  cpu time    0.15: real time    0.15

 Broyden mixing:
  rms(total) = 0.64351E-02    rms(broyden)= 0.64348E-02
  rms(prec ) = 0.11002E-01
  weight for this iteration     100.00

 eigenvalues of (default mixing * dielectric matrix)
  average eigenvalue GAMMA=   2.0761
  3.0253  2.4882  1.1383  1.6525

 Free energy of the ion-electron system (eV)
  ---------------------------------------------------
  -1/2 Hartree   DENC   =        -4.61635614
  -V(xc)+E(xc)   XCENC  =         0.95052678
  PAW double counting   =         3.09804413       -3.14737050
  entropy T*S    EENTRO =         0.00000000
  eigenvalues    EBANDS =       -24.53113409
  ---------------------------------------------------
  free energy    TOTEN  =       -28.24628983 eV

  energy without entropy =      -28.24628983


----------------------------------------- Iteration    3(   7)  ---------------------------------------


   POT+DIJ:  cpu time    0.07: real time    0.07
    HAMIL1:  cpu time    0.01: real time    0.01
    LRDIAG:  cpu time    0.01: real time    0.01
    LRDIIS:  cpu time    0.02: real time    0.02
    LRDIAG:  cpu time    0.01: real time    0.01
    MIXING:  cpu time    0.00: real time    0.00
    --------------------------------------------
      LOOP:  cpu time    0.15: real time    0.15

 Broyden mixing:
  rms(total) = 0.55106E-03    rms(broyden)= 0.55019E-03
  rms(prec ) = 0.10552E-02
  weight for this iteration     100.00

 eigenvalues of (default mixing * dielectric matrix)
  average eigenvalue GAMMA=   1.9438
  3.0875  2.4202  1.6720  1.1193  1.4200

 Free energy of the ion-electron system (eV)
  ---------------------------------------------------
  -1/2 Hartree   DENC   =        -4.62576514
  -V(xc)+E(xc)   XCENC  =         0.95722946
  PAW double counting   =         3.06460567       -3.11343065
  entropy T*S    EENTRO =         0.00000000
  eigenvalues    EBANDS =       -24.56408365
  ---------------------------------------------------
  free energy    TOTEN  =       -28.28144432 eV

  energy without entropy =      -28.28144432


----------------------------------------- Iteration    3(   8)  ---------------------------------------


   POT+DIJ:  cpu time    0.07: real time    0.07
    HAMIL1:  cpu time    0.01: real time    0.01
    LRDIAG:  cpu time    0.01: real time    0.01
    LRDIIS:  cpu time    0.02: real time    0.02
    LRDIAG:  cpu time    0.01: real time    0.01
    MIXING:  cpu time    0.00: real time    0.00
    --------------------------------------------
      LOOP:  cpu time    0.15: real time    0.15

 Broyden mixing:
  rms(total) = 0.27115E-03    rms(broyden)= 0.27106E-03
  rms(prec ) = 0.39641E-03
  weight for this iteration     100.00

 eigenvalues of (default mixing * dielectric matrix)
  average eigenvalue GAMMA=   1.9382
  3.0819  2.5178  2.0641  1.6750  1.1062  1.1840

 Free energy of the ion-electron system (eV)
  ---------------------------------------------------
  -1/2 Hartree   DENC   =        -4.62925131
  -V(xc)+E(xc)   XCENC  =         0.95816810
  PAW double counting   =         3.06840621       -3.11729532
  entropy T*S    EENTRO =         0.00000000
  eigenvalues    EBANDS =       -24.56527122
  ---------------------------------------------------
  free energy    TOTEN  =       -28.28524354 eV

  energy without entropy =      -28.28524354


----------------------------------------- Iteration    3(   9)  ---------------------------------------


   POT+DIJ:  cpu time    0.08: real time    0.08
    HAMIL1:  cpu time    0.01: real time    0.01
    LRDIAG:  cpu time    0.01: real time    0.01
    LRDIIS:  cpu time    0.02: real time    0.02
    LRDIAG:  cpu time    0.01: real time    0.01
    MIXING:  cpu time    0.00: real time    0.00
    --------------------------------------------
      LOOP:  cpu time    0.15: real time    0.16

 Broyden mixing:
  rms(total) = 0.10339E-03    rms(broyden)= 0.10337E-03
  rms(prec ) = 0.15611E-03
  weight for this iteration     100.00

 eigenvalues of (default mixing * dielectric matrix)
  average eigenvalue GAMMA=   1.8953
  3.1780  2.7441  2.4044  1.6749  1.2758  1.0986  0.8914

 Free energy of the ion-electron system (eV)
  ---------------------------------------------------
  -1/2 Hartree   DENC   =        -4.62886834
  -V(xc)+E(xc)   XCENC  =         0.95809039
  PAW double counting   =         3.07043255       -3.11935669
  entropy T*S    EENTRO =         0.00000000
  eigenvalues    EBANDS =       -24.56552646
  ---------------------------------------------------
  free energy    TOTEN  =       -28.28522855 eV

  energy without entropy =      -28.28522855


----------------------------------------- Iteration    3(  10)  ---------------------------------------


   POT+DIJ:  cpu time    0.07: real time    0.07
    HAMIL1:  cpu time    0.00: real time    0.01
    LRDIAG:  cpu time    0.01: real time    0.01
    LRDIIS:  cpu time    0.02: real time    0.02
    LRDIAG:  cpu time    0.01: real time    0.01
    MIXING:  cpu time    0.00: real time    0.00
    --------------------------------------------
      LOOP:  cpu time    0.15: real time    0.15

 Broyden mixing:
  rms(total) = 0.11895E-04    rms(broyden)= 0.11880E-04
  rms(prec ) = 0.19652E-04
  weight for this iteration     100.00

 eigenvalues of (default mixing * dielectric matrix)
  average eigenvalue GAMMA=   1.8423
  3.1962  2.7678  2.4563  1.6676  1.3917  0.9460  1.2086  1.1043

 Free energy of the ion-electron system (eV)
  ---------------------------------------------------
  -1/2 Hartree   DENC   =        -4.62899338
  -V(xc)+E(xc)   XCENC  =         0.95813980
  PAW double counting   =         3.07166719       -3.12061279
  entropy T*S    EENTRO =         0.00000000
  eigenvalues    EBANDS =       -24.56576976
  ---------------------------------------------------
  free energy    TOTEN  =       -28.28556894 eV

  energy without entropy =      -28.28556894


----------------------------------------- Iteration    3(  11)  ---------------------------------------


   POT+DIJ:  cpu time    0.07: real time    0.07
    HAMIL1:  cpu time    0.00: real time    0.01
    LRDIAG:  cpu time    0.01: real time    0.01
    LRDIIS:  cpu time    0.02: real time    0.02
    LRDIAG:  cpu time    0.01: real time    0.01
    MIXING:  cpu time    0.00: real time    0.00
    --------------------------------------------
      LOOP:  cpu time    0.14: real time    0.15

 Broyden mixing:
  rms(total) = 0.41331E-05    rms(broyden)= 0.41311E-05
  rms(prec ) = 0.62650E-05
  weight for this iteration     100.00

 eigenvalues of (default mixing * dielectric matrix)
  average eigenvalue GAMMA=   1.8518
  3.2017  2.7796  2.4248  2.1431  1.6691  1.3252  0.9525  1.0757  1.0950

 Free energy of the ion-electron system (eV)
  ---------------------------------------------------
  -1/2 Hartree   DENC   =        -4.62899436
  -V(xc)+E(xc)   XCENC  =         0.95813535
  PAW double counting   =         3.07169624       -3.12064224
  entropy T*S    EENTRO =         0.00000000
  eigenvalues    EBANDS =       -24.56574864
  ---------------------------------------------------
  free energy    TOTEN  =       -28.28555365 eV

  energy without entropy =      -28.28555365


----------------------------------------- Iteration    3(  12)  ---------------------------------------


   POT+DIJ:  cpu time    0.07: real time    0.07
    HAMIL1:  cpu time    0.00: real time    0.01
    LRDIAG:  cpu time    0.01: real time    0.01
    LRDIIS:  cpu time    0.02: real time    0.02
    LRDIAG:  cpu time    0.01: real time    0.01
    MIXING:  cpu time    0.00: real time    0.00
    --------------------------------------------
      LOOP:  cpu time    0.14: real time    0.15

 Broyden mixing:
  rms(total) = 0.13641E-05    rms(broyden)= 0.13637E-05
  rms(prec ) = 0.19515E-05
  weight for this iteration     100.00

 eigenvalues of (default mixing * dielectric matrix)
  average eigenvalue GAMMA=   1.8436
  3.2019  2.8218  2.4275  2.4275  1.6722  1.0041  1.0041  1.1028  1.3920  1.3822

 Free energy of the ion-electron system (eV)
  ---------------------------------------------------
  -1/2 Hartree   DENC   =        -4.62899711
  -V(xc)+E(xc)   XCENC  =         0.95813600
  PAW double counting   =         3.07162666       -3.12057149
  entropy T*S    EENTRO =         0.00000000
  eigenvalues    EBANDS =       -24.56575181
  ---------------------------------------------------
  free energy    TOTEN  =       -28.28555775 eV

  energy without entropy =      -28.28555775


----------------------------------------- Iteration    3(  13)  ---------------------------------------


   POT+DIJ:  cpu time    0.07: real time    0.07
    HAMIL1:  cpu time    0.01: real time    0.01
    LRDIAG:  cpu time    0.01: real time    0.01
    LRDIIS:  cpu time    0.02: real time    0.02
    LRDIAG:  cpu time    0.01: real time    0.01
    MIXING:  cpu time    0.00: real time    0.00
    --------------------------------------------
      LOOP:  cpu time    0.15: real time    0.15

 Broyden mixing:
  rms(total) = 0.35435E-06    rms(broyden)= 0.35428E-06
  rms(prec ) = 0.55986E-06
  weight for this iteration     100.00

 eigenvalues of (default mixing * dielectric matrix)
  average eigenvalue GAMMA=   1.8044
  3.2096  2.8142  2.5884  2.4346  1.6779  1.6372  0.9845  0.9845  1.2638  1.1061
  1.1480

 Free energy of the ion-electron system (eV)
  ---------------------------------------------------
  -1/2 Hartree   DENC   =        -4.62899692
  -V(xc)+E(xc)   XCENC  =         0.95813573
  PAW double counting   =         3.07159917       -3.12054356
  entropy T*S    EENTRO =         0.00000000
  eigenvalues    EBANDS =       -24.56575132
  ---------------------------------------------------
  free energy    TOTEN  =       -28.28555691 eV

  energy without entropy =      -28.28555691


------------------------ aborting loop because EDIFF is reached ----------------------------------------


 change of polarisation eV/A/(eV/A) component  3 :     0.321    -0.315    50.532
 dielectric tensor                  component  3 :     0.355    -0.348    56.869


--------------------------------------------------------------------------------------------------------


    FORLOC:  cpu time    0.00: real time    0.00
    FORNL :  cpu time    0.08: real time    0.08
    STRESS:  cpu time    0.28: real time    0.28
    FORCOR:  cpu time    0.02: real time    0.02
    FORLOC:  cpu time    0.00: real time    0.00
    FORNL :  cpu time    0.08: real time    0.08
    STRESS:  cpu time    0.27: real time    0.27
    FORCOR:  cpu time    0.02: real time    0.02
    FORNLD:  cpu time    0.01: real time    0.01

 PIEZOELECTRIC TENSOR FIELD DIRECTION 3  (e Angst)
 -----------------------------------------------------------------------------
    -0.00713 -0.00021  0.00113           (  0.00000  0.00000  0.00001)
    -0.00021  0.00317 -0.00027           (  0.00000  0.00001  0.00001)
     0.00113 -0.00027 -0.00084           (  0.00001  0.00001 -0.00001)

 PIEZOELECTRIC TENSOR FIELD DIRECTION 3  (C/m^2)
 -----------------------------------------------------------------------------
    -0.00070 -0.00002  0.00011
    -0.00002  0.00031 -0.00003
     0.00011 -0.00003 -0.00008


      POSITION         DIRECTION 3           BORN EFFECTIVE CHARGE    (rigid.aug.   ionic)
 -----------------------------------------------------------------------------------------
      5.46901      0.00003      0.00292    -0.10026 -0.05124 -5.79129 (  0.21592  4.00000)
      1.36753      1.37042      1.36484    -0.07392  0.00144 -5.75881 (  0.21594  4.00000)
      2.73792      2.73234      0.00244     0.06242 -0.07691 -5.74363 (  0.21595  4.00000)
      4.09984      4.10494      1.36797    -0.08848  0.04732 -5.75266 (  0.21593  4.00000)
      2.73744      0.00047      2.73829     0.07952  0.10505 -5.80233 (  0.21592  4.00000)
      4.10297      1.37079      4.10234     0.05083 -0.03444 -5.76947 (  0.21594  4.00000)
      0.00329      2.73484      2.73428    -0.08158  0.06554 -5.77264 (  0.21593  4.00000)
      1.36734      4.10178      4.10214     0.07134  0.02231 -5.82582 (  0.21591  4.00000)
 -----------------------------------------------------------------------------------------
    total drift (improves with k-points):  -0.08012  0.07908-46.21665




--------------------------------------------------------------------------------------------------------


  LATTYP: Found a simple cubic cell.
 ALAT       =     5.4700000000
  
  Lattice vectors:
  
 A1 = (   5.4700000000,   0.0000000000,   0.0000000000)
 A2 = (   0.0000000000,   5.4700000000,   0.0000000000)
 A3 = (   0.0000000000,   0.0000000000,   5.4700000000)


Analysis of symmetry for initial positions (statically):
=====================================================================
 Subroutine PRICEL returns:
 Original cell was already a primitive cell.
 

 Routine SETGRP: Setting up the symmetry group for a 
 simple cubic supercell.


 Subroutine GETGRP returns: Found  1 space group operations
 (whereof  1 operations were pure point group operations)
 out of a pool of 48 trial point group operations.


The static configuration has the point symmetry C_1 .


Analysis of symmetry for dynamics (positions and initial velocities):
=====================================================================
 Subroutine PRICEL returns:
 Original cell was already a primitive cell.
 

 Routine SETGRP: Setting up the symmetry group for a 
 simple cubic supercell.


 Subroutine GETGRP returns: Found  1 space group operations
 (whereof  1 operations were pure point group operations)
 out of a pool of 48 trial point group operations.


The dynamic configuration has the point symmetry C_1 .


 MACROSCOPIC STATIC DIELECTRIC TENSOR (including local field effects in DFT)
 ------------------------------------------------------
          56.868305    -0.357739     0.354877
          -0.357743    56.870172    -0.348244
           0.354866    -0.348246    56.868905
 ------------------------------------------------------



--------------------------------------------------------------------------------------------------------


  LATTYP: Found a simple cubic cell.
 ALAT       =     5.4700000000
  
  Lattice vectors:
  
 A1 = (   5.4700000000,   0.0000000000,   0.0000000000)
 A2 = (   0.0000000000,   5.4700000000,   0.0000000000)
 A3 = (   0.0000000000,   0.0000000000,   5.4700000000)


Analysis of symmetry for initial positions (statically):
=====================================================================
 Subroutine PRICEL returns:
 Original cell was already a primitive cell.
 

 Routine SETGRP: Setting up the symmetry group for a 
 simple cubic supercell.


 Subroutine GETGRP returns: Found  1 space group operations
 (whereof  1 operations were pure point group operations)
 out of a pool of 48 trial point group operations.


The static configuration has the point symmetry C_1 .


Analysis of symmetry for dynamics (positions and initial velocities):
=====================================================================
 Subroutine PRICEL returns:
 Original cell was already a primitive cell.
 

 Routine SETGRP: Setting up the symmetry group for a 
 simple cubic supercell.


 Subroutine GETGRP returns: Found  1 space group operations
 (whereof  1 operations were pure point group operations)
 out of a pool of 48 trial point group operations.


The dynamic configuration has the point symmetry C_1 .
 
 KPOINTS: Automatic mesh                          

Automatic generation of k-mesh.
Space group operators:
 irot       det(A)        alpha          n_x          n_y          n_z        tau_x        tau_y        tau_z
    1     1.000000     0.000001     1.000000     0.000000     0.000000     0.000000     0.000000     0.000000
 
 Subroutine IBZKPT returns following result:
 ===========================================
 
 Found      1 irreducible k-points:
 
 Following reciprocal coordinates:
            Coordinates               Weight
  0.000000  0.000000  0.000000      1.000000
 
 Following cartesian coordinates:
            Coordinates               Weight
  0.000000  0.000000  0.000000      1.000000
 


--------------------------------------------------------------------------------------------------------




 MACROSCOPIC STATIC DIELECTRIC TENSOR (including local field effects in DFT)
 ------------------------------------------------------
          56.868305    -0.357739     0.354877
          -0.357743    56.870172    -0.348244
           0.354866    -0.348246    56.868905
 ------------------------------------------------------


 PIEZOELECTRIC TENSOR  for field in x, y, z        (e  Angst)
          XX          YY          ZZ          XY          YZ          ZX
  --------------------------------------------------------------------------------
  x     0.00100    -0.00350     0.00630     0.00214    -0.00255    -0.00011
  y     0.00098     0.00095     0.00026    -0.00257     0.00227     0.00206
  z    -0.00713     0.00317    -0.00084    -0.00021    -0.00027     0.00113

 PIEZOELECTRIC TENSOR  for field in x, y, z        (C/m^2)
          XX          YY          ZZ          XY          YZ          ZX
  --------------------------------------------------------------------------------
  x     0.00010    -0.00034     0.00062     0.00021    -0.00025    -0.00001
  y     0.00010     0.00009     0.00003    -0.00025     0.00022     0.00020
  z    -0.00070     0.00031    -0.00008    -0.00002    -0.00003     0.00011
 
 BORN EFFECTIVE CHARGES (in e, cummulative output)
 -------------------------------------------------
 ion    1
    1    -5.80238    -0.01735     0.04121
    2     0.02584    -5.80751     0.06920
    3    -0.10026    -0.05124    -5.79129
 ion    2
    1    -5.77487     0.11330     0.10315
    2    -0.07421    -5.75768     0.01562
    3    -0.07392     0.00144    -5.75881
 ion    3
    1    -5.73295     0.03177    -0.07531
    2    -0.00858    -5.73049     0.14692
    3     0.06242    -0.07691    -5.74363
 ion    4
    1    -5.76241    -0.08615     0.07481
    2     0.09899    -5.77840     0.02177
    3    -0.08848     0.04732    -5.75266
 ion    5
    1    -5.78816     0.01661    -0.05691
    2     0.05017    -5.81374    -0.12119
    3     0.07952     0.10505    -5.80233
 ion    6
    1    -5.75035    -0.01486    -0.12363
    2     0.08273    -5.74444    -0.00472
    3     0.05083    -0.03444    -5.76947
 ion    7
    1    -5.78507     0.00498     0.05316
    2    -0.02864    -5.75693    -0.05489
    3    -0.08158     0.06554    -5.77264
 ion    8
    1    -5.81954     0.02986    -0.09678
    2    -0.06696    -5.82540     0.00644
    3     0.07134     0.02231    -5.82582


--------------------------------------------------------------------------------------------------------


     LOOP+:  cpu time   18.62: real time   18.99
    4ORBIT:  cpu time    0.00: real time    0.00

 total amount of memory used by VASP on root node    32224. kBytes
========================================================================

   base      :      30000. kBytes
   nonl-proj :        202. kBytes
   fftplans  :        782. kBytes
   grid      :       1198. kBytes
   one-center:         24. kBytes
   wavefun   :         18. kBytes
 
  
  
 General timing and accounting informations for this job:
 ========================================================
  
                  Total CPU time used (sec):       19.376
                            User time (sec):       15.347
                          System time (sec):        4.029
                         Elapsed time (sec):       21.197
  
                   Maximum memory used (kb):       79468.
                   Average memory used (kb):           0.
  
                          Minor page faults:       213097
                          Major page faults:            0
                 Voluntary context switches:         1484
