 vasp.5.3.3 18Dez12 (build Jan  9 2014 12:00:49) complex                        
  
 executed on             LinuxIFC date 2014.01.29  10:11:58
 running on   48 total cores
 distrk:  each k-point on   48 cores,    1 groups
 distr:  one band on NCORES_PER_BAND=   1 cores,   48 groups


--------------------------------------------------------------------------------------------------------


 INCAR:
 POTCAR:    PAW Si                                

 ----------------------------------------------------------------------------- 
|                                                                             |
|           W    W    AA    RRRRR   N    N  II  N    N   GGGG   !!!           |
|           W    W   A  A   R    R  NN   N  II  NN   N  G    G  !!!           |
|           W    W  A    A  R    R  N N  N  II  N N  N  G       !!!           |
|           W WW W  AAAAAA  RRRRR   N  N N  II  N  N N  G  GGG   !            |
|           WW  WW  A    A  R   R   N   NN  II  N   NN  G    G                |
|           W    W  A    A  R    R  N    N  II  N    N   GGGG   !!!           |
|                                                                             |
|      For optimal performance we recommend that you set                      |
|        NPAR = 4 - approx SQRT( number of cores)                             |
|      (number of cores/NPAR must be integer)                                 |
|      This setting will greatly improve the performance of VASP for DFT.     |
|      The default NPAR=number of cores might be grossly inefficient          |
|      on modern multi-core architectures or massively parallel machines.     |
|      Do your own testing.                                                   |
|      Unfortunately you need to use the default for hybrid, GW and RPA       |
|      calculations.                                                          |
|                                                                             |
 ----------------------------------------------------------------------------- 

 POTCAR:    PAW Si                                
   VRHFIN =Si: s2p2                                                             
   LEXCH  = 91                                                                  
   EATOM  =   103.3076 eV,    7.5929 Ry                                         
                                                                                
   TITEL  = PAW Si                                                              
   LULTRA =        F    use ultrasoft PP ?                                      
   IUNSCR =        1    unscreen: 0-lin 1-nonlin 2-no                           
   RPACOR =    1.500    partial core radius                                     
   POMASS =   28.085; ZVAL   =    4.000    mass and valenz                      
   RCORE  =    1.900    outmost cutoff radius                                   
   RWIGS  =    2.480; RWIGS  =    1.312    wigner-seitz radius (au A)           
   ENMAX  =  245.435; ENMIN  =  184.076 eV                                      
   ICORE  =        2    local potential                                         
   LCOR   =        T    correct aug charges                                     
   LPAW   =        T    paw PP                                                  
   EAUG   =  322.069                                                            
   DEXC   =    -.001                                                            
   RMAX   =    2.943    core radius for proj-oper                               
   RAUG   =    1.300    factor for augmentation sphere                          
   RDEP   =    1.993    core radius for depl-charge                             
   QCUT   =   -4.247; QGAM   =    8.494    optimization parameters              
                                                                                
   Description                                                                  
     l     E      TYP  RCUT    TYP  RCUT                                        
     0   .000     23  1.900                                                     
     0   .000     23  1.900                                                     
     1   .000     23  1.900                                                     
     1   .000     23  1.900                                                     
     2   .000      7  1.900                                                     
  local pseudopotential read in
  partial core-charges read in
  atomic valenz-charges read in
  non local Contribution for L=           0  read in
    real space projection operators read in
  non local Contribution for L=           0  read in
    real space projection operators read in
  non local Contribution for L=           1  read in
    real space projection operators read in
  non local Contribution for L=           1  read in
    real space projection operators read in
    PAW grid and wavefunctions read in
 
   number of l-projection  operators is LMAX  =           4
   number of lm-projection operators is LMMAX =           8
 
  PAW Si                                :
 energy of atom  1       EATOM= -103.3076
 kinetic energy error for atom=    0.0109 (will be added to EATOM!!)
 
 
 POSCAR: OUTCAR.0022.-1.out 1.0e-02              
  positions in cartesian coordinates
  No initial velocities read in
 exchange correlation table for  LEXCH =        7
   RHO(1)=    0.500       N(1)  =     2000
   RHO(2)=  100.500       N(2)  =     4000

 VTST: version 3.0c, (01/09/14)

 CHAIN: initializing optimizer
 
 OPT: Using VASP Dynamics algorithm
 CHAIN: Read ICHAIN            0
 
 POSCAR: OUTCAR.0022.-1.out 1.0e-02              
  positions in cartesian coordinates
  No initial velocities read in
 


--------------------------------------------------------------------------------------------------------


 ion  position               nearest neighbor table
   1  1.000  0.999  0.000-   4 2.36   8 2.37   6 2.37   2 2.37
   2  0.249  0.250  0.250-   7 2.36   5 2.37   1 2.37   3 2.37
   3  0.500  0.500  1.000-   8 2.36   4 2.37   6 2.37   2 2.37
   4  0.750  0.750  0.250-   7 2.36   1 2.36   3 2.37   5 2.37
   5  0.500  0.000  0.500-   6 2.37   2 2.37   4 2.37   8 2.37
   6  0.750  0.250  0.750-   5 2.37   3 2.37   1 2.37   7 2.37
   7  1.000  0.500  0.499-   2 2.36   4 2.36   6 2.37   8 2.37
   8  0.250  0.749  0.751-   3 2.36   1 2.37   7 2.37   5 2.37
 
  LATTYP: Found a simple cubic cell.
 ALAT       =     5.4700000000
  
  Lattice vectors:
  
 A1 = (   5.4700000000,   0.0000000000,   0.0000000000)
 A2 = (   0.0000000000,   5.4700000000,   0.0000000000)
 A3 = (   0.0000000000,   0.0000000000,   5.4700000000)


Analysis of symmetry for initial positions (statically):
=====================================================================
 Subroutine PRICEL returns:
 Original cell was already a primitive cell.
 

 Routine SETGRP: Setting up the symmetry group for a 
 simple cubic supercell.


 Subroutine GETGRP returns: Found  1 space group operations
 (whereof  1 operations were pure point group operations)
 out of a pool of 48 trial point group operations.


The static configuration has the point symmetry C_1 .


Analysis of symmetry for dynamics (positions and initial velocities):
=====================================================================
 Subroutine PRICEL returns:
 Original cell was already a primitive cell.
 

 Routine SETGRP: Setting up the symmetry group for a 
 simple cubic supercell.


 Subroutine GETGRP returns: Found  1 space group operations
 (whereof  1 operations were pure point group operations)
 out of a pool of 48 trial point group operations.


The dynamic configuration has the point symmetry C_1 .


 irot  :   1
 --------------------------------------------------------------------
 isymop:   1   0   0
           0   1   0
           0   0   1

 gtrans:     0.0000000     0.0000000     0.0000000

 ptrans:     0.0000000     0.0000000     0.0000000
 rotmap:
 (   1->   1)  (   2->   2)  (   3->   3)  (   4->   4)  (   5->   5) 
 (   6->   6)  (   7->   7)  (   8->   8) 
 
 
 KPOINTS: Automatic mesh                          

Automatic generation of k-mesh.
Space group operators:
 irot       det(A)        alpha          n_x          n_y          n_z        tau_x        tau_y        tau_z
    1     1.000000     0.000001     1.000000     0.000000     0.000000     0.000000     0.000000     0.000000
 
 Subroutine IBZKPT returns following result:
 ===========================================
 
 Found      1 irreducible k-points:
 
 Following reciprocal coordinates:
            Coordinates               Weight
  0.000000  0.000000  0.000000      1.000000
 
 Following cartesian coordinates:
            Coordinates               Weight
  0.000000  0.000000  0.000000      1.000000
 
 
 Subroutine IBZKPT_HF returns following result:
 ==============================================
 
 Found      1 k-points in 1st BZ
 the following      1 k-points will be used (e.g. in the exchange kernel)
 Following reciprocal coordinates:   # in IRBZ
  0.000000  0.000000  0.000000       1 t-inv F


--------------------------------------------------------------------------------------------------------




 Dimension of arrays:
   k-points           NKPTS =      1   k-points in BZ     NKDIM =      1   number of bands    NBANDS=     48
   number of dos      NEDOS =    301   number of ions     NIONS =      8
   non local maximal  LDIM  =      4   non local SUM 2l+1 LMDIM =      8
   total plane-waves  NPLWV =  21952
   max r-space proj   IRMAX =      1   max aug-charges    IRDMAX=  36071
   dimension x,y,z NGX =    28 NGY =   28 NGZ =   28
   dimension x,y,z NGXF=    56 NGYF=   56 NGZF=   56
   support grid    NGXF=   112 NGYF=  112 NGZF=  112
   ions per type =               8
 NGX,Y,Z   is equivalent  to a cutoff of   8.51,  8.51,  8.51 a.u.
 NGXF,Y,Z  is equivalent  to a cutoff of  17.02, 17.02, 17.02 a.u.


 I would recommend the setting:
   dimension x,y,z NGX =    19 NGY =   19 NGZ =   19
 SYSTEM =  NAPTHA04                                
 POSCAR =  OUTCAR.0022.-1.out 1.0e-02              

 Startparameter for this run:
   NWRITE =      3    write-flag & timer
   PREC   = normal    normal or accurate (medium, high low for compatibility)
   ISTART =      0    job   : 0-new  1-cont  2-samecut
   ICHARG =      2    charge: 1-file 2-atom 10-const
   ISPIN  =      1    spin polarized calculation?
   LNONCOLLINEAR =      F non collinear calculations
   LSORBIT =      F    spin-orbit coupling
   INIWAV =      1    electr: 0-lowe 1-rand  2-diag
   LASPH  =      F    aspherical Exc in radial PAW
   METAGGA=      F    non-selfconsistent MetaGGA calc.

 Electronic Relaxation 1
   ENCUT  =  200.0 eV  14.70 Ry    3.83 a.u.   6.31  6.31  6.31*2*pi/ulx,y,z
   ENINI  =  200.0     initial cutoff
   ENAUG  =  322.1 eV  augmentation charge cutoff
   NELM   =     60;   NELMIN=  2; NELMDL= -5     # of ELM steps 
   EDIFF  = 0.1E-07   stopping-criterion for ELM
   LREAL  =      F    real-space projection
   NLSPLINE    = F    spline interpolate recip. space projectors
   LCOMPAT=      F    compatible to vasp.4.4
   GGA_COMPAT  = T    GGA compatible to vasp.4.4-vasp.4.6
   LMAXPAW     = -100 max onsite density
   LMAXMIX     =    2 max onsite mixed and CHGCAR
   VOSKOWN=      0    Vosko Wilk Nusair interpolation
   ROPT   =    0.00000
 Ionic relaxation
   EDIFFG = 0.1E-06   stopping-criterion for IOM
   NSW    =      0    number of steps for IOM
   NBLOCK =      1;   KBLOCK =      1    inner block; outer block 
   IBRION =     -1    ionic relax: 0-MD 1-quasi-New 2-CG
   NFREE  =      0    steps in history (QN), initial steepest desc. (CG)
   ISIF   =      2    stress and relaxation
   IWAVPR =     10    prediction:  0-non 1-charg 2-wave 3-comb
   ISYM   =      2    0-nonsym 1-usesym 2-fastsym
   LCORR  =      T    Harris-Foulkes like correction to forces

   POTIM  = 0.5000    time-step for ionic-motion
   TEIN   =    0.0    initial temperature
   TEBEG  =    0.0;   TEEND  =   0.0 temperature during run
   SMASS  =  -3.00    Nose mass-parameter (am)
   estimated Nose-frequenzy (Omega)   =  0.10E-29 period in steps =****** mass=  -0.684E-27a.u.
   SCALEE = 1.0000    scale energy and forces
   NPACO  =    256;   APACO  = 16.0  distance and # of slots for P.C.
   PSTRESS=    0.0 pullay stress

  Mass of Ions in am
   POMASS =  28.09
  Ionic Valenz
   ZVAL   =   4.00
  Atomic Wigner-Seitz radii
   RWIGS  =  -1.00
  virtual crystal weights 
   VCA    =   1.00
   NELECT =      32.0000    total number of electrons
   NUPDOWN=      -1.0000    fix difference up-down

 DOS related values:
   EMIN   =  10.00;   EMAX   =-10.00  energy-range for DOS
   EFERMI =   0.00
   ISMEAR =     0;   SIGMA  =   0.02  broadening in eV -4-tet -1-fermi 0-gaus

 Electronic relaxation 2 (details)
   IALGO  =     68    algorithm
   LDIAG  =      T    sub-space diagonalisation (order eigenvalues)
   LSUBROT=      T    optimize rotation matrix (better conditioning)
   TURBO    =      0    0=normal 1=particle mesh
   IRESTART =      0    0=no restart 2=restart with 2 vectors
   NREBOOT  =      0    no. of reboots
   NMIN     =      0    reboot dimension
   EREF     =   0.00    reference energy to select bands
   IMIX   =      4    mixing-type and parameters
     AMIX     =   0.40;   BMIX     =  1.00
     AMIX_MAG =   1.60;   BMIX_MAG =  1.00
     AMIN     =   0.10
     WC   =   100.;   INIMIX=   1;  MIXPRE=   1;  MAXMIX= -45

 Intra band minimization:
   WEIMIN = 0.0000     energy-eigenvalue tresh-hold
   EBREAK =  0.52E-10  absolut break condition
   DEPER  =   0.30     relativ break condition  

   TIME   =   0.40     timestep for ELM

  volume/ion in A,a.u.               =      20.46       138.06
  Fermi-wavevector in a.u.,A,eV,Ry     =   0.950176  1.795573 12.283814  0.902835
  Thomas-Fermi vector in A             =   2.078528
 
 Write flags
   LWAVE  =      F    write WAVECAR
   LCHARG =      F    write CHGCAR
   LVTOT  =      F    write LOCPOT, total local potential
   LVHAR  =      F    write LOCPOT, Hartree potential only
   LELF   =      F    write electronic localiz. function (ELF)
   LORBIT =      0    0 simple, 1 ext, 2 COOP (PROOUT)


 Dipole corrections
   LMONO  =      F    monopole corrections only (constant potential shift)
   LDIPOL =      F    correct potential (dipole corrections)
   IDIPOL =      0    1-x, 2-y, 3-z, 4-all directions 
   EPSILON=  1.0000000 bulk dielectric constant

 Exchange correlation treatment:
   GGA     =    --    GGA type
   LEXCH   =     7    internal setting for exchange type
   VOSKOWN=      0    Vosko Wilk Nusair interpolation
   LHFCALC =     F    Hartree Fock is set to
   LHFONE  =     F    Hartree Fock one center treatment
   AEXX    =    0.0000 exact exchange contribution

 Linear response parameters
   LEPSILON=     T    determine dielectric tensor
   LRPA    =     F    only Hartree local field effects (RPA)
   LNABLA  =     F    use nabla operator in PAW spheres
   LVEL    =     F    velocity operator in full k-point grid
   LINTERFAST=   F  fast interpolation
   KINTER  =     0    interpolate to denser k-point grid
   CSHIFT  =0.1000    complex shift for real part using Kramers Kronig
   OMEGAMAX=  -1.0    maximum frequency
   DEG_THRESHOLD= 0.2000000E-02 threshold for treating states as degnerate
   RTIME   =    0.100 relaxation time in fs

 Orbital magnetization related:
   ORBITALMAG=     F  switch on orbital magnetization
   LCHIMAG   =     F  perturbation theory with respect to B field
   DQ        =  0.001000  dq finite difference perturbation B field



--------------------------------------------------------------------------------------------------------


 Static calculation
 charge density and potential will be updated during run
 non-spin polarized calculation
 RMM-DIIS sequential band-by-band and
  variant of blocked Davidson during initial phase
 perform sub-space diagonalisation
    before iterative eigenvector-optimisation
 modified Broyden-mixing scheme, WC =      100.0
 initial mixing is a Kerker type mixing with AMIX =  0.4000 and BMIX =      1.0000
 Hartree-type preconditioning will be used
 using additional bands           32
 reciprocal scheme for non local part
 use partial core corrections
 calculate Harris-corrections to forces 
   (improved forces if not selfconsistent)
 use gradient corrections 
 use of overlap-Matrix (Vanderbilt PP)
 Gauss-broadening in eV      SIGMA  =   0.02


--------------------------------------------------------------------------------------------------------


  energy-cutoff  :      200.00
  volume of cell :      163.67
      direct lattice vectors                 reciprocal lattice vectors
     5.470000000  0.000000000  0.000000000     0.182815356  0.000000000  0.000000000
     0.000000000  5.470000000  0.000000000     0.000000000  0.182815356  0.000000000
     0.000000000  0.000000000  5.470000000     0.000000000  0.000000000  0.182815356

  length of vectors
     5.470000000  5.470000000  5.470000000     0.182815356  0.182815356  0.182815356


 
 k-points in units of 2pi/SCALE and weight: Automatic mesh                          
   0.00000000  0.00000000  0.00000000       1.000
 
 k-points in reciprocal lattice and weights: Automatic mesh                          
   0.00000000  0.00000000  0.00000000       1.000
 
 position of ions in fractional coordinates (direct lattice) 
   0.99957339  0.99933678  0.00029311
   0.24933678  0.25029311  0.25035038
   0.50029311  0.50035038  0.99983818
   0.75035038  0.74983818  0.25014678
   0.49983818  0.00014678  0.49985783
   0.75014678  0.24985783  0.74998560
   0.99985783  0.49998560  0.49935330
   0.24998560  0.74935330  0.75078327
 
 position of ions in cartesian coordinates  (Angst):
   5.46766646  5.46637219  0.00160330
   1.36387219  1.36910330  1.36941656
   2.73660330  2.73691656  5.46911484
   4.10441656  4.10161484  1.36830290
   2.73411484  0.00080290  2.73422235
   4.10330290  1.36672235  4.10242121
   5.46922235  2.73492121  2.73146255
   1.36742121  4.09896255  4.10678448
 


--------------------------------------------------------------------------------------------------------


 k-point  1 :   0.0000 0.0000 0.0000  plane waves:    1021

 maximum and minimum number of plane-waves per node :      1021     1021

 maximum number of plane-waves:      1021
 maximum index in each direction: 
   IXMAX=    6   IYMAX=    6   IZMAX=    6
   IXMIN=   -6   IYMIN=   -6   IZMIN=   -6

 NGX is ok and might be reduce to  26
 NGY is ok and might be reduce to  26
 NGZ is ok and might be reduce to  26

 serial   3D FFT for wavefunctions
 parallel 3D FFT for charge:
    minimum data exchange during FFTs selected (reduces bandwidth)


 total amount of memory used by VASP on root node    32224. kBytes
========================================================================

   base      :      30000. kBytes
   nonl-proj :        202. kBytes
   fftplans  :        782. kBytes
   grid      :       1198. kBytes
   one-center:         24. kBytes
   wavefun   :         18. kBytes
 
 Broyden mixing: mesh for mixing (old mesh)
   NGX = 13   NGY = 13   NGZ = 13
  (NGX  = 56   NGY  = 56   NGZ  = 56)
  gives a total of   2197 points

 initial charge density was supplied:
 charge density of overlapping atoms calculated
 number of electron      32.0000000 magnetization 
 keeping initial charge density in first step


--------------------------------------------------------------------------------------------------------


 Maximum index for augmentation-charges         1787 (set IRDMAX)


--------------------------------------------------------------------------------------------------------


 First call to EWALD:  gamma=   0.324
 Maximum number of real-space cells 3x 3x 3
 Maximum number of reciprocal cells 3x 3x 3

 FEWALD executed in parallel
    FEWALD:  cpu time    0.00: real time    0.00


----------------------------------------- Iteration    1(   1)  ---------------------------------------


    POTLOK:  cpu time    0.03: real time    0.03
    SETDIJ:  cpu time    0.02: real time    0.02
     EDDAV:  cpu time    0.40: real time    0.40
       DOS:  cpu time    0.00: real time    0.00
    --------------------------------------------
      LOOP:  cpu time    0.45: real time    0.47

 eigenvalue-minimisations  :    96
 total energy-change (2. order) :-0.1013579E+02  (-0.7955926E+03)
 number of electron      32.0000000 magnetization 
 augmentation part       32.0000000 magnetization 

 Free energy of the ion-electron system (eV)
  ---------------------------------------------------
  alpha Z        PSCENC =        12.68944982
  Ewald energy   TEWEN  =      -907.56565268
  -1/2 Hartree   DENC   =       -45.63688368
  -exchange  EXHF       =         0.00000000
  -V(xc)+E(xc)   XCENC  =       -76.79669656
  PAW double counting   =       265.93453375     -123.69690146
  entropy T*S    EENTRO =        -0.00042161
  eigenvalues    EBANDS =        38.56280071
  atomic energy  EATOM  =       826.37398168
  ---------------------------------------------------
  free energy    TOTEN  =       -10.13579002 eV

  energy without entropy =      -10.13536842  energy(sigma->0) =      -10.13557922


--------------------------------------------------------------------------------------------------------




 average (electrostatic) potential at core
  the test charge radii are     0.9892
  (the norm of the test charge is              1.0000)
       1 -84.3519       2 -84.3491       3 -84.3508       4 -84.3569       5 -84.3446
       6 -84.3479       7 -84.3554       8 -84.3487
 
 
 
 E-fermi :   6.6073     XC(G=0):  -9.5533     alpha+bet :-11.7379


 k-point   1 :       0.0000    0.0000    0.0000
  band No.  band energies     occupation 
      1      -6.5897      2.00000
      2      -2.4150      2.00000
      3      -2.2477      2.00000
      4      -2.1251      2.00000
      5      -2.0317      2.00000
      6      -1.8780      2.00000
      7      -1.6690      2.00000
      8       2.7416      2.00000
      9       2.8502      2.00000
     10       2.9890      2.00000
     11       3.1611      2.00000
     12       3.3451      2.00000
     13       4.0819      2.00000
     14       6.1401      2.00000
     15       6.3609      2.00000
     16       6.5674      1.99522
     17       6.6472      0.00478
     18       6.8099      0.00000
     19       6.9043      0.00000
     20       7.1727      0.00000
     21       7.3727      0.00000
     22       8.0519      0.00000
     23       8.9829      0.00000
     24       9.3829      0.00000
     25      10.4479      0.00000
     26      11.4548      0.00000
     27      13.5066      0.00000
     28      14.7706      0.00000
     29      16.5514      0.00000
     30      16.8969      0.00000
     31      17.3643      0.00000
     32      17.5906      0.00000
     33      17.9291      0.00000
     34      18.1312      0.00000
     35      18.4953      0.00000
     36      18.8867      0.00000
     37      19.3718      0.00000
     38      19.5067      0.00000
     39      19.8634      0.00000
     40      20.2587      0.00000
     41      21.0985      0.00000
     42      21.6856      0.00000
     43      22.1818      0.00000
     44      22.7592      0.00000
     45      23.8987      0.00000
     46      24.4012      0.00000
     47      24.8088      0.00000
     48      25.8397      0.00000


--------------------------------------------------------------------------------------------------------


 soft charge-density along one line, spin component           1
         0         1         2         3         4         5         6         7         8         9
 total charge-density along one line
 
 pseudopotential strength for first ion, spin component:           1
 18.662   0.000   0.000   0.000   0.000   0.000   0.000   0.000
  0.000   0.006   0.000   0.000   0.000   0.000   0.000   0.000
  0.000   0.000   4.216   0.000   0.000  -0.004   0.000   0.000
  0.000   0.000   0.000   4.216   0.000   0.000  -0.004   0.000
  0.000   0.000   0.000   0.000   4.216   0.000   0.000  -0.004
  0.000   0.000  -0.004   0.000   0.000   0.005   0.000   0.000
  0.000   0.000   0.000  -0.004   0.000   0.000   0.005   0.000
  0.000   0.000   0.000   0.000  -0.004   0.000   0.000   0.005
 total augmentation occupancy for first ion, spin component:           1
  2.000   0.000   0.000   0.000   0.000   0.000   0.000   0.000
  0.000   0.000   0.000   0.000   0.000   0.000   0.000   0.000
  0.000   0.000   0.667   0.000   0.000   0.000   0.000   0.000
  0.000   0.000   0.000   0.667   0.000   0.000   0.000   0.000
  0.000   0.000   0.000   0.000   0.667   0.000   0.000   0.000
  0.000   0.000   0.000   0.000   0.000   0.000   0.000   0.000
  0.000   0.000   0.000   0.000   0.000   0.000   0.000   0.000
  0.000   0.000   0.000   0.000   0.000   0.000   0.000   0.000


----------------------------------------- Iteration    1(   2)  ---------------------------------------


     EDDAV:  cpu time    0.97: real time    0.97
       DOS:  cpu time    0.00: real time    0.00
    --------------------------------------------
      LOOP:  cpu time    0.98: real time    0.98

 eigenvalue-minimisations  :   144
 total energy-change (2. order) :-0.2431463E+02  (-0.2431007E+02)
 number of electron      32.0000000 magnetization 
 augmentation part       32.0000000 magnetization 

 Free energy of the ion-electron system (eV)
  ---------------------------------------------------
  alpha Z        PSCENC =        12.68944982
  Ewald energy   TEWEN  =      -907.56565268
  -1/2 Hartree   DENC   =       -45.63688368
  -exchange  EXHF       =         0.00000000
  -V(xc)+E(xc)   XCENC  =       -76.79669656
  PAW double counting   =       265.93453375     -123.69690146
  entropy T*S    EENTRO =         0.00000000
  eigenvalues    EBANDS =        14.24775016
  atomic energy  EATOM  =       826.37398168
  ---------------------------------------------------
  free energy    TOTEN  =       -34.45041897 eV

  energy without entropy =      -34.45041897  energy(sigma->0) =      -34.45041897


--------------------------------------------------------------------------------------------------------




 average (electrostatic) potential at core
  the test charge radii are     0.9892
  (the norm of the test charge is              1.0000)
       1 -84.3519       2 -84.3491       3 -84.3508       4 -84.3569       5 -84.3446
       6 -84.3479       7 -84.3554       8 -84.3487
 
 
 
 E-fermi :   5.2492     XC(G=0):  -9.5533     alpha+bet :-11.7379


 k-point   1 :       0.0000    0.0000    0.0000
  band No.  band energies     occupation 
      1      -6.6372      2.00000
      2      -2.6491      2.00000
      3      -2.6426      2.00000
      4      -2.6322      2.00000
      5      -2.6260      2.00000
      6      -2.6162      2.00000
      7      -2.6090      2.00000
      8       2.3695      2.00000
      9       2.3781      2.00000
     10       2.3811      2.00000
     11       2.3820      2.00000
     12       2.3864      2.00000
     13       2.3987      2.00000
     14       5.0628      2.00000
     15       5.0780      2.00000
     16       5.0994      2.00000
     17       6.1417      0.00000
     18       6.1516      0.00000
     19       6.1545      0.00000
     20       6.1583      0.00000
     21       6.1619      0.00000
     22       6.1716      0.00000
     23       7.8489      0.00000
     24       7.8573      0.00000
     25       7.8654      0.00000
     26       8.1266      0.00000
     27      13.2002      0.00000
     28      13.2619      0.00000
     29      13.2699      0.00000
     30      15.0993      0.00000
     31      15.1340      0.00000
     32      15.1692      0.00000
     33      15.2477      0.00000
     34      15.3153      0.00000
     35      15.6374      0.00000
     36      16.3886      0.00000
     37      16.4227      0.00000
     38      16.4429      0.00000
     39      16.5363      0.00000
     40      16.7175      0.00000
     41      16.7500      0.00000
     42      16.7723      0.00000
     43      16.8756      0.00000
     44      17.2324      0.00000
     45      17.9197      0.00000
     46      17.9536      0.00000
     47      17.9937      0.00000
     48      18.0169      0.00000


--------------------------------------------------------------------------------------------------------


 soft charge-density along one line, spin component           1
         0         1         2         3         4         5         6         7         8         9
 total charge-density along one line
 
 pseudopotential strength for first ion, spin component:           1
 18.662   0.000   0.000   0.000   0.000   0.000   0.000   0.000
  0.000   0.006   0.000   0.000   0.000   0.000   0.000   0.000
  0.000   0.000   4.216   0.000   0.000  -0.004   0.000   0.000
  0.000   0.000   0.000   4.216   0.000   0.000  -0.004   0.000
  0.000   0.000   0.000   0.000   4.216   0.000   0.000  -0.004
  0.000   0.000  -0.004   0.000   0.000   0.005   0.000   0.000
  0.000   0.000   0.000  -0.004   0.000   0.000   0.005   0.000
  0.000   0.000   0.000   0.000  -0.004   0.000   0.000   0.005
 total augmentation occupancy for first ion, spin component:           1
  2.000   0.000   0.000   0.000   0.000   0.000   0.000   0.000
  0.000   0.000   0.000   0.000   0.000   0.000   0.000   0.000
  0.000   0.000   0.667   0.000   0.000   0.000   0.000   0.000
  0.000   0.000   0.000   0.667   0.000   0.000   0.000   0.000
  0.000   0.000   0.000   0.000   0.667   0.000   0.000   0.000
  0.000   0.000   0.000   0.000   0.000   0.000   0.000   0.000
  0.000   0.000   0.000   0.000   0.000   0.000   0.000   0.000
  0.000   0.000   0.000   0.000   0.000   0.000   0.000   0.000


----------------------------------------- Iteration    1(   3)  ---------------------------------------


     EDDAV:  cpu time    0.39: real time    0.39
       DOS:  cpu time    0.00: real time    0.00
    --------------------------------------------
      LOOP:  cpu time    0.39: real time    0.40

 eigenvalue-minimisations  :    96
 total energy-change (2. order) :-0.1669646E+00  (-0.1669646E+00)
 number of electron      32.0000000 magnetization 
 augmentation part       32.0000000 magnetization 

 Free energy of the ion-electron system (eV)
  ---------------------------------------------------
  alpha Z        PSCENC =        12.68944982
  Ewald energy   TEWEN  =      -907.56565268
  -1/2 Hartree   DENC   =       -45.63688368
  -exchange  EXHF       =         0.00000000
  -V(xc)+E(xc)   XCENC  =       -76.79669656
  PAW double counting   =       265.93453375     -123.69690146
  entropy T*S    EENTRO =         0.00000000
  eigenvalues    EBANDS =        14.08078552
  atomic energy  EATOM  =       826.37398168
  ---------------------------------------------------
  free energy    TOTEN  =       -34.61738361 eV

  energy without entropy =      -34.61738361  energy(sigma->0) =      -34.61738361


--------------------------------------------------------------------------------------------------------




 average (electrostatic) potential at core
  the test charge radii are     0.9892
  (the norm of the test charge is              1.0000)
       1 -84.3519       2 -84.3491       3 -84.3508       4 -84.3569       5 -84.3446
       6 -84.3479       7 -84.3554       8 -84.3487
 
 
 
 E-fermi :   5.2212     XC(G=0):  -9.5533     alpha+bet :-11.7379


 k-point   1 :       0.0000    0.0000    0.0000
  band No.  band energies     occupation 
      1      -6.6372      2.00000
      2      -2.6508      2.00000
      3      -2.6448      2.00000
      4      -2.6341      2.00000
      5      -2.6279      2.00000
      6      -2.6194      2.00000
      7      -2.6113      2.00000
      8       2.3670      2.00000
      9       2.3750      2.00000
     10       2.3774      2.00000
     11       2.3782      2.00000
     12       2.3811      2.00000
     13       2.3871      2.00000
     14       5.0520      2.00000
     15       5.0675      2.00000
     16       5.0805      2.00000
     17       6.1391      0.00000
     18       6.1477      0.00000
     19       6.1508      0.00000
     20       6.1548      0.00000
     21       6.1584      0.00000
     22       6.1683      0.00000
     23       7.8419      0.00000
     24       7.8491      0.00000
     25       7.8577      0.00000
     26       8.1178      0.00000
     27      13.1845      0.00000
     28      13.1865      0.00000
     29      13.2693      0.00000
     30      15.0819      0.00000
     31      15.0857      0.00000
     32      15.0941      0.00000
     33      15.1101      0.00000
     34      15.1304      0.00000
     35      15.1838      0.00000
     36      16.3210      0.00000
     37      16.3283      0.00000
     38      16.3382      0.00000
     39      16.3668      0.00000
     40      16.4366      0.00000
     41      16.4859      0.00000
     42      16.7072      0.00000
     43      16.7196      0.00000
     44      16.8165      0.00000
     45      17.8870      0.00000
     46      17.8985      0.00000
     47      17.9206      0.00000
     48      17.9355      0.00000


--------------------------------------------------------------------------------------------------------


 soft charge-density along one line, spin component           1
         0         1         2         3         4         5         6         7         8         9
 total charge-density along one line
 
 pseudopotential strength for first ion, spin component:           1
 18.662   0.000   0.000   0.000   0.000   0.000   0.000   0.000
  0.000   0.006   0.000   0.000   0.000   0.000   0.000   0.000
  0.000   0.000   4.216   0.000   0.000  -0.004   0.000   0.000
  0.000   0.000   0.000   4.216   0.000   0.000  -0.004   0.000
  0.000   0.000   0.000   0.000   4.216   0.000   0.000  -0.004
  0.000   0.000  -0.004   0.000   0.000   0.005   0.000   0.000
  0.000   0.000   0.000  -0.004   0.000   0.000   0.005   0.000
  0.000   0.000   0.000   0.000  -0.004   0.000   0.000   0.005
 total augmentation occupancy for first ion, spin component:           1
  2.000   0.000   0.000   0.000   0.000   0.000   0.000   0.000
  0.000   0.000   0.000   0.000   0.000   0.000   0.000   0.000
  0.000   0.000   0.667   0.000   0.000   0.000   0.000   0.000
  0.000   0.000   0.000   0.667   0.000   0.000   0.000   0.000
  0.000   0.000   0.000   0.000   0.667   0.000   0.000   0.000
  0.000   0.000   0.000   0.000   0.000   0.000   0.000   0.000
  0.000   0.000   0.000   0.000   0.000   0.000   0.000   0.000
  0.000   0.000   0.000   0.000   0.000   0.000   0.000   0.000


----------------------------------------- Iteration    1(   4)  ---------------------------------------


     EDDAV:  cpu time    2.00: real time    2.00
       DOS:  cpu time    0.00: real time    0.00
    --------------------------------------------
      LOOP:  cpu time    2.00: real time    2.01

 eigenvalue-minimisations  :   192
 total energy-change (2. order) :-0.3547081E-03  (-0.3547081E-03)
 number of electron      32.0000000 magnetization 
 augmentation part       32.0000000 magnetization 

 Free energy of the ion-electron system (eV)
  ---------------------------------------------------
  alpha Z        PSCENC =        12.68944982
  Ewald energy   TEWEN  =      -907.56565268
  -1/2 Hartree   DENC   =       -45.63688368
  -exchange  EXHF       =         0.00000000
  -V(xc)+E(xc)   XCENC  =       -76.79669656
  PAW double counting   =       265.93453375     -123.69690146
  entropy T*S    EENTRO =         0.00000000
  eigenvalues    EBANDS =        14.08043081
  atomic energy  EATOM  =       826.37398168
  ---------------------------------------------------
  free energy    TOTEN  =       -34.61773832 eV

  energy without entropy =      -34.61773832  energy(sigma->0) =      -34.61773832


--------------------------------------------------------------------------------------------------------




 average (electrostatic) potential at core
  the test charge radii are     0.9892
  (the norm of the test charge is              1.0000)
       1 -84.3519       2 -84.3491       3 -84.3508       4 -84.3569       5 -84.3446
       6 -84.3479       7 -84.3554       8 -84.3487
 
 
 
 E-fermi :   5.1994     XC(G=0):  -9.5533     alpha+bet :-11.7379


 k-point   1 :       0.0000    0.0000    0.0000
  band No.  band energies     occupation 
      1      -6.6372      2.00000
      2      -2.6508      2.00000
      3      -2.6448      2.00000
      4      -2.6341      2.00000
      5      -2.6279      2.00000
      6      -2.6194      2.00000
      7      -2.6113      2.00000
      8       2.3670      2.00000
      9       2.3750      2.00000
     10       2.3774      2.00000
     11       2.3782      2.00000
     12       2.3811      2.00000
     13       2.3871      2.00000
     14       5.0520      2.00000
     15       5.0675      2.00000
     16       5.0805      2.00000
     17       6.1391      0.00000
     18       6.1477      0.00000
     19       6.1508      0.00000
     20       6.1548      0.00000
     21       6.1584      0.00000
     22       6.1683      0.00000
     23       7.8418      0.00000
     24       7.8490      0.00000
     25       7.8577      0.00000
     26       8.1178      0.00000
     27      13.1837      0.00000
     28      13.1838      0.00000
     29      13.2693      0.00000
     30      15.0733      0.00000
     31      15.0786      0.00000
     32      15.0843      0.00000
     33      15.0844      0.00000
     34      15.0881      0.00000
     35      15.0999      0.00000
     36      16.2894      0.00000
     37      16.3010      0.00000
     38      16.3106      0.00000
     39      16.3131      0.00000
     40      16.3215      0.00000
     41      16.3265      0.00000
     42      16.6959      0.00000
     43      16.7039      0.00000
     44      16.7134      0.00000
     45      17.8696      0.00000
     46      17.8788      0.00000
     47      17.8858      0.00000
     48      17.8904      0.00000


--------------------------------------------------------------------------------------------------------


 soft charge-density along one line, spin component           1
         0         1         2         3         4         5         6         7         8         9
 total charge-density along one line
 
 pseudopotential strength for first ion, spin component:           1
 18.662   0.000   0.000   0.000   0.000   0.000   0.000   0.000
  0.000   0.006   0.000   0.000   0.000   0.000   0.000   0.000
  0.000   0.000   4.216   0.000   0.000  -0.004   0.000   0.000
  0.000   0.000   0.000   4.216   0.000   0.000  -0.004   0.000
  0.000   0.000   0.000   0.000   4.216   0.000   0.000  -0.004
  0.000   0.000  -0.004   0.000   0.000   0.005   0.000   0.000
  0.000   0.000   0.000  -0.004   0.000   0.000   0.005   0.000
  0.000   0.000   0.000   0.000  -0.004   0.000   0.000   0.005
 total augmentation occupancy for first ion, spin component:           1
  2.000   0.000   0.000   0.000   0.000   0.000   0.000   0.000
  0.000   0.000   0.000   0.000   0.000   0.000   0.000   0.000
  0.000   0.000   0.667   0.000   0.000   0.000   0.000   0.000
  0.000   0.000   0.000   0.667   0.000   0.000   0.000   0.000
  0.000   0.000   0.000   0.000   0.667   0.000   0.000   0.000
  0.000   0.000   0.000   0.000   0.000   0.000   0.000   0.000
  0.000   0.000   0.000   0.000   0.000   0.000   0.000   0.000
  0.000   0.000   0.000   0.000   0.000   0.000   0.000   0.000


----------------------------------------- Iteration    1(   5)  ---------------------------------------


     EDDAV:  cpu time    0.39: real time    0.39
       DOS:  cpu time    0.00: real time    0.00
    CHARGE:  cpu time    0.02: real time    0.02
    MIXING:  cpu time    0.00: real time    0.00
    --------------------------------------------
      LOOP:  cpu time    0.42: real time    0.42

 eigenvalue-minimisations  :    96
 total energy-change (2. order) :-0.3068408E-08  (-0.3068160E-08)
 number of electron      31.9999999 magnetization 
 augmentation part       -1.8053384 magnetization 

 Broyden mixing:
  rms(total) = 0.79306E+00    rms(broyden)= 0.79301E+00
  rms(prec ) = 0.15229E+01
  weight for this iteration     100.00

 Free energy of the ion-electron system (eV)
  ---------------------------------------------------
  alpha Z        PSCENC =        12.68944982
  Ewald energy   TEWEN  =      -907.56565268
  -1/2 Hartree   DENC   =       -45.63688368
  -exchange  EXHF       =         0.00000000
  -V(xc)+E(xc)   XCENC  =       -76.79669656
  PAW double counting   =       265.93453375     -123.69690146
  entropy T*S    EENTRO =         0.00000000
  eigenvalues    EBANDS =        14.08043081
  atomic energy  EATOM  =       826.37398168
  ---------------------------------------------------
  free energy    TOTEN  =       -34.61773832 eV

  energy without entropy =      -34.61773832  energy(sigma->0) =      -34.61773832


--------------------------------------------------------------------------------------------------------




 average (electrostatic) potential at core
  the test charge radii are     0.9892
  (the norm of the test charge is              1.0000)
       1 -84.3519       2 -84.3491       3 -84.3508       4 -84.3569       5 -84.3446
       6 -84.3479       7 -84.3554       8 -84.3487
 
 
 
 E-fermi :   5.1967     XC(G=0):  -9.5533     alpha+bet :-11.7379


 k-point   1 :       0.0000    0.0000    0.0000
  band No.  band energies     occupation 
      1      -6.6372      2.00000
      2      -2.6508      2.00000
      3      -2.6448      2.00000
      4      -2.6341      2.00000
      5      -2.6279      2.00000
      6      -2.6194      2.00000
      7      -2.6113      2.00000
      8       2.3670      2.00000
      9       2.3750      2.00000
     10       2.3774      2.00000
     11       2.3782      2.00000
     12       2.3811      2.00000
     13       2.3871      2.00000
     14       5.0520      2.00000
     15       5.0675      2.00000
     16       5.0805      2.00000
     17       6.1391      0.00000
     18       6.1477      0.00000
     19       6.1508      0.00000
     20       6.1548      0.00000
     21       6.1584      0.00000
     22       6.1683      0.00000
     23       7.8418      0.00000
     24       7.8490      0.00000
     25       7.8577      0.00000
     26       8.1178      0.00000
     27      13.1837      0.00000
     28      13.1838      0.00000
     29      13.2693      0.00000
     30      15.0733      0.00000
     31      15.0786      0.00000
     32      15.0843      0.00000
     33      15.0844      0.00000
     34      15.0879      0.00000
     35      15.0998      0.00000
     36      16.2890      0.00000
     37      16.3007      0.00000
     38      16.3102      0.00000
     39      16.3128      0.00000
     40      16.3213      0.00000
     41      16.3262      0.00000
     42      16.6958      0.00000
     43      16.7037      0.00000
     44      16.7133      0.00000
     45      17.8601      0.00000
     46      17.8752      0.00000
     47      17.8758      0.00000
     48      17.8847      0.00000


--------------------------------------------------------------------------------------------------------


 soft charge-density along one line, spin component           1
         0         1         2         3         4         5         6         7         8         9
 total charge-density along one line
 
 pseudopotential strength for first ion, spin component:           1
 18.662   0.000   0.000   0.000   0.000   0.000   0.000   0.000
  0.000   0.006   0.000   0.000   0.000   0.000   0.000   0.000
  0.000   0.000   4.216   0.000   0.000  -0.004   0.000   0.000
  0.000   0.000   0.000   4.216   0.000   0.000  -0.004   0.000
  0.000   0.000   0.000   0.000   4.216   0.000   0.000  -0.004
  0.000   0.000  -0.004   0.000   0.000   0.005   0.000   0.000
  0.000   0.000   0.000  -0.004   0.000   0.000   0.005   0.000
  0.000   0.000   0.000   0.000  -0.004   0.000   0.000   0.005
 total augmentation occupancy for first ion, spin component:           1
  1.380  -1.052  -0.002   0.001  -0.001   0.002  -0.001   0.001
 -1.052   0.920   0.001   0.000   0.001  -0.002   0.001  -0.001
 -0.002   0.001   1.167  -0.001   0.000  -0.760   0.001   0.000
  0.001   0.000  -0.001   1.165  -0.001   0.001  -0.758   0.002
 -0.001   0.001   0.000  -0.001   1.163   0.000   0.002  -0.757
  0.002  -0.002  -0.760   0.001   0.000   0.571  -0.002   0.000
 -0.001   0.001   0.001  -0.758   0.002  -0.002   0.570  -0.002
  0.001  -0.001   0.000   0.002  -0.757   0.000  -0.002   0.569


----------------------------------------- Iteration    1(   6)  ---------------------------------------


    POTLOK:  cpu time    0.02: real time    0.02
    SETDIJ:  cpu time    0.02: real time    0.02
    EDDIAG:  cpu time    0.03: real time    0.03
  RMM-DIIS:  cpu time    0.02: real time    0.02
    ORTHCH:  cpu time    0.01: real time    0.01
       DOS:  cpu time    0.00: real time    0.00
    CHARGE:  cpu time    0.02: real time    0.02
    MIXING:  cpu time    0.00: real time    0.00
    --------------------------------------------
      LOOP:  cpu time    0.13: real time    0.13

 eigenvalue-minimisations  :    96
 total energy-change (2. order) : 0.1001753E+01  (-0.3198120E-01)
 number of electron      31.9999999 magnetization 
 augmentation part       -1.7684108 magnetization 

 Broyden mixing:
  rms(total) = 0.47400E+00    rms(broyden)= 0.47400E+00
  rms(prec ) = 0.91067E+00
  weight for this iteration     100.00

 eigenvalues of (default mixing * dielectric matrix)
  average eigenvalue GAMMA=   2.4573
  2.4573

 Free energy of the ion-electron system (eV)
  ---------------------------------------------------
  alpha Z        PSCENC =        12.68944982
  Ewald energy   TEWEN  =      -907.56565268
  -1/2 Hartree   DENC   =       -54.68354692
  -exchange  EXHF       =         0.00000000
  -V(xc)+E(xc)   XCENC  =       -75.44938232
  PAW double counting   =       286.06101197     -144.35932974
  entropy T*S    EENTRO =         0.00000000
  eigenvalues    EBANDS =        23.31748327
  atomic energy  EATOM  =       826.37398168
  ---------------------------------------------------
  free energy    TOTEN  =       -33.61598493 eV

  energy without entropy =      -33.61598493  energy(sigma->0) =      -33.61598493


--------------------------------------------------------------------------------------------------------




 average (electrostatic) potential at core
  the test charge radii are     0.9892
  (the norm of the test charge is              1.0000)
       1 -83.8335       2 -83.8321       3 -83.8329       4 -83.8359       5 -83.8298
       6 -83.8315       7 -83.8351       8 -83.8319
 
 
 
 E-fermi :   5.5606     XC(G=0):  -9.4504     alpha+bet :-11.7379


 k-point   1 :       0.0000    0.0000    0.0000
  band No.  band energies     occupation 
      1      -6.3788      2.00000
      2      -2.3498      2.00000
      3      -2.3435      2.00000
      4      -2.3351      2.00000
      5      -2.3294      2.00000
      6      -2.3225      2.00000
      7      -2.3146      2.00000
      8       2.6293      2.00000
      9       2.6363      2.00000
     10       2.6385      2.00000
     11       2.6392      2.00000
     12       2.6417      2.00000
     13       2.6472      2.00000
     14       5.3857      2.00000
     15       5.4009      2.00000
     16       5.4136      2.00000
     17       6.2547      0.00000
     18       6.2628      0.00000
     19       6.2658      0.00000
     20       6.2690      0.00000
     21       6.2718      0.00000
     22       6.2816      0.00000
     23       8.0491      0.00000
     24       8.0564      0.00000
     25       8.0652      0.00000
     26       8.4862      0.00000
     27      13.3050      0.00000
     28      13.3568      0.00000
     29      13.3569      0.00000
     30      15.3703      0.00000
     31      15.3752      0.00000
     32      15.3805      0.00000
     33      15.3806      0.00000
     34      15.3841      0.00000
     35      15.3947      0.00000
     36      16.5266      0.00000
     37      16.5374      0.00000
     38      16.5460      0.00000
     39      16.5483      0.00000
     40      16.5561      0.00000
     41      16.5607      0.00000
     42      16.7404      0.00000
     43      16.7483      0.00000
     44      16.7581      0.00000
     45      18.1485      0.00000
     46      18.1612      0.00000
     47      18.1650      0.00000
     48      18.1752      0.00000


--------------------------------------------------------------------------------------------------------


 soft charge-density along one line, spin component           1
         0         1         2         3         4         5         6         7         8         9
 total charge-density along one line
 
 pseudopotential strength for first ion, spin component:           1
 18.635  -0.001   0.000   0.000   0.000   0.000   0.000   0.000
 -0.001   0.006   0.000   0.000   0.000   0.000   0.000   0.000
  0.000   0.000   4.221   0.000   0.000  -0.004   0.000   0.000
  0.000   0.000   0.000   4.221   0.000   0.000  -0.004   0.000
  0.000   0.000   0.000   0.000   4.221   0.000   0.000  -0.004
  0.000   0.000  -0.004   0.000   0.000   0.005   0.000   0.000
  0.000   0.000   0.000  -0.004   0.000   0.000   0.005   0.000
  0.000   0.000   0.000   0.000  -0.004   0.000   0.000   0.005
 total augmentation occupancy for first ion, spin component:           1
  1.351  -1.090  -0.002   0.001  -0.001   0.002  -0.001   0.002
 -1.090   0.998   0.001   0.000   0.000  -0.002   0.001  -0.001
 -0.002   0.001   1.149  -0.001   0.000  -0.784   0.001   0.000
  0.001   0.000  -0.001   1.147  -0.001   0.001  -0.782   0.002
 -0.001   0.000   0.000  -0.001   1.145   0.000   0.002  -0.781
  0.002  -0.002  -0.784   0.001   0.000   0.610  -0.002   0.000
 -0.001   0.001   0.001  -0.782   0.002  -0.002   0.608  -0.002
  0.002  -0.001   0.000   0.002  -0.781   0.000  -0.002   0.607


----------------------------------------- Iteration    1(   7)  ---------------------------------------


    POTLOK:  cpu time    0.02: real time    0.02
    SETDIJ:  cpu time    0.02: real time    0.02
    EDDIAG:  cpu time    0.02: real time    0.02
  RMM-DIIS:  cpu time    0.02: real time    0.02
    ORTHCH:  cpu time    0.01: real time    0.01
       DOS:  cpu time    0.00: real time    0.00
    CHARGE:  cpu time    0.02: real time    0.02
    MIXING:  cpu time    0.00: real time    0.00
    --------------------------------------------
      LOOP:  cpu time    0.11: real time    0.12

 eigenvalue-minimisations  :    96
 total energy-change (2. order) : 0.4246901E+00  (-0.7388516E-01)
 number of electron      31.9999999 magnetization 
 augmentation part       -1.7214564 magnetization 

 Broyden mixing:
  rms(total) = 0.46244E-01    rms(broyden)= 0.46234E-01
  rms(prec ) = 0.78450E-01
  weight for this iteration     100.00

 eigenvalues of (default mixing * dielectric matrix)
  average eigenvalue GAMMA=   2.5297
  2.5297  2.5297

 Free energy of the ion-electron system (eV)
  ---------------------------------------------------
  alpha Z        PSCENC =        12.68944982
  Ewald energy   TEWEN  =      -907.56565268
  -1/2 Hartree   DENC   =       -70.51484742
  -exchange  EXHF       =         0.00000000
  -V(xc)+E(xc)   XCENC  =       -73.00921365
  PAW double counting   =       313.72579885     -172.73784142
  entropy T*S    EENTRO =         0.00000000
  eigenvalues    EBANDS =        37.84703002
  atomic energy  EATOM  =       826.37398168
  ---------------------------------------------------
  free energy    TOTEN  =       -33.19129480 eV

  energy without entropy =      -33.19129480  energy(sigma->0) =      -33.19129480


--------------------------------------------------------------------------------------------------------




 average (electrostatic) potential at core
  the test charge radii are     0.9892
  (the norm of the test charge is              1.0000)
       1 -83.1456       2 -83.1448       3 -83.1457       4 -83.1474       5 -83.1437
       6 -83.1450       7 -83.1470       8 -83.1449
 
 
 
 E-fermi :   6.0983     XC(G=0):  -9.2018     alpha+bet :-11.7379


 k-point   1 :       0.0000    0.0000    0.0000
  band No.  band energies     occupation 
      1      -5.9621      2.00000
      2      -1.8816      2.00000
      3      -1.8749      2.00000
      4      -1.8685      2.00000
      5      -1.8632      2.00000
      6      -1.8578      2.00000
      7      -1.8500      2.00000
      8       3.0431      2.00000
      9       3.0491      2.00000
     10       3.0512      2.00000
     11       3.0518      2.00000
     12       3.0538      2.00000
     13       3.0588      2.00000
     14       5.9107      2.00000
     15       5.9255      2.00000
     16       5.9378      2.00000
     17       6.5142      0.00000
     18       6.5219      0.00000
     19       6.5250      0.00000
     20       6.5271      0.00000
     21       6.5290      0.00000
     22       6.5386      0.00000
     23       8.3741      0.00000
     24       8.3815      0.00000
     25       8.3905      0.00000
     26       9.0452      0.00000
     27      13.6013      0.00000
     28      13.6204      0.00000
     29      13.6204      0.00000
     30      15.8211      0.00000
     31      15.8258      0.00000
     32      15.8305      0.00000
     33      15.8307      0.00000
     34      15.8336      0.00000
     35      15.8435      0.00000
     36      16.8940      0.00000
     37      16.9026      0.00000
     38      16.9117      0.00000
     39      16.9490      0.00000
     40      16.9583      0.00000
     41      16.9654      0.00000
     42      16.9677      0.00000
     43      16.9744      0.00000
     44      16.9783      0.00000
     45      18.6470      0.00000
     46      18.6543      0.00000
     47      18.6667      0.00000
     48      18.6782      0.00000


--------------------------------------------------------------------------------------------------------


 soft charge-density along one line, spin component           1
         0         1         2         3         4         5         6         7         8         9
 total charge-density along one line
 
 pseudopotential strength for first ion, spin component:           1
 18.596  -0.001   0.000   0.000   0.000   0.000   0.000   0.000
 -0.001   0.006   0.000   0.000   0.000   0.000   0.000   0.000
  0.000   0.000   4.227   0.000   0.000  -0.005   0.000   0.000
  0.000   0.000   0.000   4.227   0.000   0.000  -0.005   0.000
  0.000   0.000   0.000   0.000   4.227   0.000   0.000  -0.005
  0.000   0.000  -0.005   0.000   0.000   0.005   0.000   0.000
  0.000   0.000   0.000  -0.005   0.000   0.000   0.005   0.000
  0.000   0.000   0.000   0.000  -0.005   0.000   0.000   0.005
 total augmentation occupancy for first ion, spin component:           1
  1.315  -1.112  -0.001   0.001  -0.001   0.002  -0.001   0.002
 -1.112   1.059   0.001   0.000   0.000  -0.002   0.001  -0.001
 -0.001   0.001   1.124  -0.001   0.001  -0.807   0.001   0.000
  0.001   0.000  -0.001   1.122  -0.001   0.001  -0.805   0.002
 -0.001   0.000   0.001  -0.001   1.120   0.000   0.002  -0.804
  0.002  -0.002  -0.807   0.001   0.000   0.654  -0.001   0.000
 -0.001   0.001   0.001  -0.805   0.002  -0.001   0.651  -0.002
  0.002  -0.001   0.000   0.002  -0.804   0.000  -0.002   0.651


----------------------------------------- Iteration    1(   8)  ---------------------------------------


    POTLOK:  cpu time    0.02: real time    0.02
    SETDIJ:  cpu time    0.02: real time    0.02
    EDDIAG:  cpu time    0.02: real time    0.02
  RMM-DIIS:  cpu time    0.03: real time    0.03
    ORTHCH:  cpu time    0.01: real time    0.01
       DOS:  cpu time    0.00: real time    0.00
    CHARGE:  cpu time    0.02: real time    0.02
    MIXING:  cpu time    0.00: real time    0.00
    --------------------------------------------
      LOOP:  cpu time    0.12: real time    0.12

 eigenvalue-minimisations  :    96
 total energy-change (2. order) :-0.3197739E-01  (-0.2159025E-02)
 number of electron      31.9999999 magnetization 
 augmentation part       -1.7275423 magnetization 

 Broyden mixing:
  rms(total) = 0.74946E-02    rms(broyden)= 0.74941E-02
  rms(prec ) = 0.17965E-01
  weight for this iteration     100.00

 eigenvalues of (default mixing * dielectric matrix)
  average eigenvalue GAMMA=   2.1224
  1.2778  2.8663  2.2230

 Free energy of the ion-electron system (eV)
  ---------------------------------------------------
  alpha Z        PSCENC =        12.68944982
  Ewald energy   TEWEN  =      -907.56565268
  -1/2 Hartree   DENC   =       -70.40056390
  -exchange  EXHF       =         0.00000000
  -V(xc)+E(xc)   XCENC  =       -72.96559390
  PAW double counting   =       307.36945704     -166.19686024
  entropy T*S    EENTRO =         0.00000000
  eigenvalues    EBANDS =        37.47250998
  atomic energy  EATOM  =       826.37398168
  ---------------------------------------------------
  free energy    TOTEN  =       -33.22327220 eV

  energy without entropy =      -33.22327220  energy(sigma->0) =      -33.22327220


--------------------------------------------------------------------------------------------------------




 average (electrostatic) potential at core
  the test charge radii are     0.9892
  (the norm of the test charge is              1.0000)
       1 -83.2492       2 -83.2471       3 -83.2485       4 -83.2530       5 -83.2437
       6 -83.2465       7 -83.2519       8 -83.2469
 
 
 
 E-fermi :   6.0372     XC(G=0):  -9.1504     alpha+bet :-11.7379


 k-point   1 :       0.0000    0.0000    0.0000
  band No.  band energies     occupation 
      1      -5.9632      2.00000
      2      -1.8942      2.00000
      3      -1.8878      2.00000
      4      -1.8801      2.00000
      5      -1.8746      2.00000
      6      -1.8682      2.00000
      7      -1.8604      2.00000
      8       3.0310      2.00000
      9       3.0374      2.00000
     10       3.0397      2.00000
     11       3.0404      2.00000
     12       3.0426      2.00000
     13       3.0478      2.00000
     14       5.8945      2.00000
     15       5.9094      2.00000
     16       5.9218      2.00000
     17       6.5647      0.00000
     18       6.5726      0.00000
     19       6.5757      0.00000
     20       6.5780      0.00000
     21       6.5802      0.00000
     22       6.5899      0.00000
     23       8.3635      0.00000
     24       8.3709      0.00000
     25       8.3798      0.00000
     26       9.0381      0.00000
     27      13.6064      0.00000
     28      13.6065      0.00000
     29      13.7783      0.00000
     30      15.8060      0.00000
     31      15.8112      0.00000
     32      15.8159      0.00000
     33      15.8161      0.00000
     34      15.8188      0.00000
     35      15.8294      0.00000
     36      16.9300      0.00000
     37      16.9393      0.00000
     38      16.9460      0.00000
     39      16.9568      0.00000
     40      16.9654      0.00000
     41      16.9721      0.00000
     42      16.9748      0.00000
     43      16.9815      0.00000
     44      16.9852      0.00000
     45      18.6840      0.00000
     46      18.6904      0.00000
     47      18.7048      0.00000
     48      18.7164      0.00000


--------------------------------------------------------------------------------------------------------


 soft charge-density along one line, spin component           1
         0         1         2         3         4         5         6         7         8         9
 total charge-density along one line
 
 pseudopotential strength for first ion, spin component:           1
 18.599  -0.001   0.000   0.000   0.000   0.000   0.000   0.000
 -0.001   0.006   0.000   0.000   0.000   0.000   0.000   0.000
  0.000   0.000   4.224   0.000   0.000  -0.005   0.000   0.000
  0.000   0.000   0.000   4.224   0.000   0.000  -0.005   0.000
  0.000   0.000   0.000   0.000   4.224   0.000   0.000  -0.005
  0.000   0.000  -0.005   0.000   0.000   0.005   0.000   0.000
  0.000   0.000   0.000  -0.005   0.000   0.000   0.005   0.000
  0.000   0.000   0.000   0.000  -0.005   0.000   0.000   0.005
 total augmentation occupancy for first ion, spin component:           1
  1.320  -1.093  -0.002   0.001  -0.001   0.002  -0.001   0.002
 -1.093   1.021   0.001   0.000   0.000  -0.002   0.001  -0.001
 -0.002   0.001   1.125  -0.001   0.000  -0.802   0.001   0.000
  0.001   0.000  -0.001   1.123  -0.001   0.001  -0.801   0.002
 -0.001   0.000   0.000  -0.001   1.122   0.000   0.002  -0.800
  0.002  -0.002  -0.802   0.001   0.000   0.648  -0.002   0.000
 -0.001   0.001   0.001  -0.801   0.002  -0.002   0.647  -0.002
  0.002  -0.001   0.000   0.002  -0.800   0.000  -0.002   0.646


----------------------------------------- Iteration    1(   9)  ---------------------------------------


    POTLOK:  cpu time    0.02: real time    0.02
    SETDIJ:  cpu time    0.02: real time    0.02
    EDDIAG:  cpu time    0.02: real time    0.02
  RMM-DIIS:  cpu time    0.03: real time    0.03
    ORTHCH:  cpu time    0.01: real time    0.01
       DOS:  cpu time    0.00: real time    0.00
    CHARGE:  cpu time    0.02: real time    0.02
    MIXING:  cpu time    0.00: real time    0.00
    --------------------------------------------
      LOOP:  cpu time    0.12: real time    0.13

 eigenvalue-minimisations  :   105
 total energy-change (2. order) :-0.1141602E-02  (-0.1270243E-03)
 number of electron      31.9999999 magnetization 
 augmentation part       -1.7274619 magnetization 

 Broyden mixing:
  rms(total) = 0.41794E-02    rms(broyden)= 0.41792E-02
  rms(prec ) = 0.68416E-02
  weight for this iteration     100.00

 eigenvalues of (default mixing * dielectric matrix)
  average eigenvalue GAMMA=   2.2744
  0.9838  3.1714  2.6492  2.2931

 Free energy of the ion-electron system (eV)
  ---------------------------------------------------
  alpha Z        PSCENC =        12.68944982
  Ewald energy   TEWEN  =      -907.56565268
  -1/2 Hartree   DENC   =       -70.79759341
  -exchange  EXHF       =         0.00000000
  -V(xc)+E(xc)   XCENC  =       -72.90628152
  PAW double counting   =       307.71818456     -166.55593304
  entropy T*S    EENTRO =         0.00000000
  eigenvalues    EBANDS =        37.81943080
  atomic energy  EATOM  =       826.37398168
  ---------------------------------------------------
  free energy    TOTEN  =       -33.22441380 eV

  energy without entropy =      -33.22441380  energy(sigma->0) =      -33.22441380


--------------------------------------------------------------------------------------------------------




 average (electrostatic) potential at core
  the test charge radii are     0.9892
  (the norm of the test charge is              1.0000)
       1 -83.2349       2 -83.2333       3 -83.2342       4 -83.2376       5 -83.2306
       6 -83.2326       7 -83.2368       8 -83.2330
 
 
 
 E-fermi :   6.0522     XC(G=0):  -9.1362     alpha+bet :-11.7379


 k-point   1 :       0.0000    0.0000    0.0000
  band No.  band energies     occupation 
      1      -5.9519      2.00000
      2      -1.8826      2.00000
      3      -1.8762      2.00000
      4      -1.8689      2.00000
      5      -1.8635      2.00000
      6      -1.8575      2.00000
      7      -1.8496      2.00000
      8       3.0411      2.00000
      9       3.0473      2.00000
     10       3.0495      2.00000
     11       3.0502      2.00000
     12       3.0523      2.00000
     13       3.0575      2.00000
     14       5.9067      2.00000
     15       5.9215      2.00000
     16       5.9339      2.00000
     17       6.5787      0.00000
     18       6.5866      0.00000
     19       6.5898      0.00000
     20       6.5921      0.00000
     21       6.5944      0.00000
     22       6.6041      0.00000
     23       8.3711      0.00000
     24       8.3785      0.00000
     25       8.3874      0.00000
     26       9.0527      0.00000
     27      13.6116      0.00000
     28      13.6117      0.00000
     29      13.8106      0.00000
     30      15.8167      0.00000
     31      15.8217      0.00000
     32      15.8264      0.00000
     33      15.8266      0.00000
     34      15.8295      0.00000
     35      15.8397      0.00000
     36      16.9402      0.00000
     37      16.9493      0.00000
     38      16.9565      0.00000
     39      16.9689      0.00000
     40      16.9775      0.00000
     41      16.9842      0.00000
     42      16.9868      0.00000
     43      16.9934      0.00000
     44      16.9972      0.00000
     45      18.7016      0.00000
     46      18.7080      0.00000
     47      18.7232      0.00000
     48      18.7351      0.00000


--------------------------------------------------------------------------------------------------------


 soft charge-density along one line, spin component           1
         0         1         2         3         4         5         6         7         8         9
 total charge-density along one line
 
 pseudopotential strength for first ion, spin component:           1
 18.598  -0.001   0.000   0.000   0.000   0.000   0.000   0.000
 -0.001   0.006   0.000   0.000   0.000   0.000   0.000   0.000
  0.000   0.000   4.224   0.000   0.000  -0.005   0.000   0.000
  0.000   0.000   0.000   4.224   0.000   0.000  -0.005   0.000
  0.000   0.000   0.000   0.000   4.224   0.000   0.000  -0.005
  0.000   0.000  -0.005   0.000   0.000   0.005   0.000   0.000
  0.000   0.000   0.000  -0.005   0.000   0.000   0.005   0.000
  0.000   0.000   0.000   0.000  -0.005   0.000   0.000   0.005
 total augmentation occupancy for first ion, spin component:           1
  1.320  -1.087  -0.002   0.001  -0.001   0.002  -0.001   0.002
 -1.087   1.013   0.001   0.000   0.000  -0.002   0.001  -0.001
 -0.002   0.001   1.125  -0.001   0.001  -0.802   0.001   0.000
  0.001   0.000  -0.001   1.123  -0.001   0.001  -0.801   0.002
 -0.001   0.000   0.001  -0.001   1.121   0.000   0.002  -0.799
  0.002  -0.002  -0.802   0.001   0.000   0.649  -0.002   0.000
 -0.001   0.001   0.001  -0.801   0.002  -0.002   0.647  -0.002
  0.002  -0.001   0.000   0.002  -0.799   0.000  -0.002   0.646


----------------------------------------- Iteration    1(  10)  ---------------------------------------


    POTLOK:  cpu time    0.02: real time    0.02
    SETDIJ:  cpu time    0.02: real time    0.02
    EDDIAG:  cpu time    0.02: real time    0.02
  RMM-DIIS:  cpu time    0.03: real time    0.03
    ORTHCH:  cpu time    0.01: real time    0.01
       DOS:  cpu time    0.00: real time    0.00
    CHARGE:  cpu time    0.02: real time    0.02
    MIXING:  cpu time    0.00: real time    0.00
    --------------------------------------------
      LOOP:  cpu time    0.12: real time    0.12

 eigenvalue-minimisations  :   104
 total energy-change (2. order) :-0.1837564E-03  (-0.2207600E-04)
 number of electron      31.9999999 magnetization 
 augmentation part       -1.7273600 magnetization 

 Broyden mixing:
  rms(total) = 0.39651E-03    rms(broyden)= 0.39603E-03
  rms(prec ) = 0.82542E-03
  weight for this iteration     100.00

 eigenvalues of (default mixing * dielectric matrix)
  average eigenvalue GAMMA=   2.0404
  3.0883  2.6253  2.1581  0.9781  1.3524

 Free energy of the ion-electron system (eV)
  ---------------------------------------------------
  alpha Z        PSCENC =        12.68944982
  Ewald energy   TEWEN  =      -907.56565268
  -1/2 Hartree   DENC   =       -70.84547605
  -exchange  EXHF       =         0.00000000
  -V(xc)+E(xc)   XCENC  =       -72.90937153
  PAW double counting   =       307.79692320     -166.64039866
  entropy T*S    EENTRO =         0.00000000
  eigenvalues    EBANDS =        37.87594666
  atomic energy  EATOM  =       826.37398168
  ---------------------------------------------------
  free energy    TOTEN  =       -33.22459756 eV

  energy without entropy =      -33.22459756  energy(sigma->0) =      -33.22459756


--------------------------------------------------------------------------------------------------------




 average (electrostatic) potential at core
  the test charge radii are     0.9892
  (the norm of the test charge is              1.0000)
       1 -83.2267       2 -83.2255       3 -83.2262       4 -83.2287       5 -83.2234
       6 -83.2249       7 -83.2281       8 -83.2253
 
 
 
 E-fermi :   6.0564     XC(G=0):  -9.1310     alpha+bet :-11.7379


 k-point   1 :       0.0000    0.0000    0.0000
  band No.  band energies     occupation 
      1      -5.9497      2.00000
      2      -1.8805      2.00000
      3      -1.8741      2.00000
      4      -1.8670      2.00000
      5      -1.8617      2.00000
      6      -1.8558      2.00000
      7      -1.8481      2.00000
      8       3.0427      2.00000
      9       3.0489      2.00000
     10       3.0510      2.00000
     11       3.0517      2.00000
     12       3.0538      2.00000
     13       3.0589      2.00000
     14       5.9086      2.00000
     15       5.9234      2.00000
     16       5.9358      2.00000
     17       6.5837      0.00000
     18       6.5916      0.00000
     19       6.5947      0.00000
     20       6.5971      0.00000
     21       6.5994      0.00000
     22       6.6091      0.00000
     23       8.3720      0.00000
     24       8.3794      0.00000
     25       8.3883      0.00000
     26       9.0560      0.00000
     27      13.6116      0.00000
     28      13.6117      0.00000
     29      13.8257      0.00000
     30      15.8185      0.00000
     31      15.8233      0.00000
     32      15.8281      0.00000
     33      15.8283      0.00000
     34      15.8312      0.00000
     35      15.8413      0.00000
     36      16.9439      0.00000
     37      16.9531      0.00000
     38      16.9600      0.00000
     39      16.9717      0.00000
     40      16.9801      0.00000
     41      16.9867      0.00000
     42      16.9893      0.00000
     43      16.9958      0.00000
     44      16.9995      0.00000
     45      18.7085      0.00000
     46      18.7151      0.00000
     47      18.7297      0.00000
     48      18.7416      0.00000


--------------------------------------------------------------------------------------------------------


 soft charge-density along one line, spin component           1
         0         1         2         3         4         5         6         7         8         9
 total charge-density along one line
 
 pseudopotential strength for first ion, spin component:           1
 18.597  -0.001   0.000   0.000   0.000   0.000   0.000   0.000
 -0.001   0.006   0.000   0.000   0.000   0.000   0.000   0.000
  0.000   0.000   4.224   0.000   0.000  -0.005   0.000   0.000
  0.000   0.000   0.000   4.224   0.000   0.000  -0.005   0.000
  0.000   0.000   0.000   0.000   4.224   0.000   0.000  -0.005
  0.000   0.000  -0.005   0.000   0.000   0.005   0.000   0.000
  0.000   0.000   0.000  -0.005   0.000   0.000   0.005   0.000
  0.000   0.000   0.000   0.000  -0.005   0.000   0.000   0.005
 total augmentation occupancy for first ion, spin component:           1
  1.320  -1.087  -0.002   0.001  -0.001   0.002  -0.001   0.002
 -1.087   1.013   0.001   0.000   0.000  -0.002   0.001  -0.001
 -0.002   0.001   1.125  -0.001   0.001  -0.803   0.001   0.000
  0.001   0.000  -0.001   1.122  -0.001   0.001  -0.801   0.002
 -0.001   0.000   0.001  -0.001   1.121   0.000   0.002  -0.800
  0.002  -0.002  -0.803   0.001   0.000   0.649  -0.002   0.000
 -0.001   0.001   0.001  -0.801   0.002  -0.002   0.648  -0.002
  0.002  -0.001   0.000   0.002  -0.800   0.000  -0.002   0.647


----------------------------------------- Iteration    1(  11)  ---------------------------------------


    POTLOK:  cpu time    0.02: real time    0.02
    SETDIJ:  cpu time    0.02: real time    0.02
    EDDIAG:  cpu time    0.03: real time    0.03
  RMM-DIIS:  cpu time    0.04: real time    0.05
    ORTHCH:  cpu time    0.01: real time    0.01
       DOS:  cpu time    0.00: real time    0.00
    CHARGE:  cpu time    0.02: real time    0.02
    MIXING:  cpu time    0.00: real time    0.00
    --------------------------------------------
      LOOP:  cpu time    0.14: real time    0.15

 eigenvalue-minimisations  :   117
 total energy-change (2. order) : 0.4152822E-05  (-0.2430811E-06)
 number of electron      31.9999999 magnetization 
 augmentation part       -1.7274458 magnetization 

 Broyden mixing:
  rms(total) = 0.16494E-03    rms(broyden)= 0.16488E-03
  rms(prec ) = 0.32788E-03
  weight for this iteration     100.00

 eigenvalues of (default mixing * dielectric matrix)
  average eigenvalue GAMMA=   1.9504
  3.2073  2.7022  2.1803  1.6529  0.9798  0.9798

 Free energy of the ion-electron system (eV)
  ---------------------------------------------------
  alpha Z        PSCENC =        12.68944982
  Ewald energy   TEWEN  =      -907.56565268
  -1/2 Hartree   DENC   =       -70.82866702
  -exchange  EXHF       =         0.00000000
  -V(xc)+E(xc)   XCENC  =       -72.91085734
  PAW double counting   =       307.73337020     -166.57449270
  entropy T*S    EENTRO =         0.00000000
  eigenvalues    EBANDS =        37.85827463
  atomic energy  EATOM  =       826.37398168
  ---------------------------------------------------
  free energy    TOTEN  =       -33.22459340 eV

  energy without entropy =      -33.22459340  energy(sigma->0) =      -33.22459340


--------------------------------------------------------------------------------------------------------




 average (electrostatic) potential at core
  the test charge radii are     0.9892
  (the norm of the test charge is              1.0000)
       1 -83.2285       2 -83.2270       3 -83.2279       4 -83.2310       5 -83.2246
       6 -83.2264       7 -83.2302       8 -83.2268
 
 
 
 E-fermi :   6.0561     XC(G=0):  -9.1314     alpha+bet :-11.7379


 k-point   1 :       0.0000    0.0000    0.0000
  band No.  band energies     occupation 
      1      -5.9502      2.00000
      2      -1.8813      2.00000
      3      -1.8748      2.00000
      4      -1.8676      2.00000
      5      -1.8622      2.00000
      6      -1.8562      2.00000
      7      -1.8484      2.00000
      8       3.0421      2.00000
      9       3.0483      2.00000
     10       3.0505      2.00000
     11       3.0512      2.00000
     12       3.0533      2.00000
     13       3.0584      2.00000
     14       5.9080      2.00000
     15       5.9228      2.00000
     16       5.9352      2.00000
     17       6.5832      0.00000
     18       6.5912      0.00000
     19       6.5943      0.00000
     20       6.5967      0.00000
     21       6.5989      0.00000
     22       6.6086      0.00000
     23       8.3716      0.00000
     24       8.3790      0.00000
     25       8.3879      0.00000
     26       9.0553      0.00000
     27      13.6114      0.00000
     28      13.6115      0.00000
     29      13.8249      0.00000
     30      15.8178      0.00000
     31      15.8227      0.00000
     32      15.8275      0.00000
     33      15.8277      0.00000
     34      15.8306      0.00000
     35      15.8408      0.00000
     36      16.9436      0.00000
     37      16.9528      0.00000
     38      16.9596      0.00000
     39      16.9711      0.00000
     40      16.9795      0.00000
     41      16.9862      0.00000
     42      16.9888      0.00000
     43      16.9954      0.00000
     44      16.9991      0.00000
     45      18.7091      0.00000
     46      18.7168      0.00000
     47      18.7298      0.00000
     48      18.7414      0.00000


--------------------------------------------------------------------------------------------------------


 soft charge-density along one line, spin component           1
         0         1         2         3         4         5         6         7         8         9
 total charge-density along one line
 
 pseudopotential strength for first ion, spin component:           1
 18.597  -0.001   0.000   0.000   0.000   0.000   0.000   0.000
 -0.001   0.006   0.000   0.000   0.000   0.000   0.000   0.000
  0.000   0.000   4.224   0.000   0.000  -0.005   0.000   0.000
  0.000   0.000   0.000   4.224   0.000   0.000  -0.005   0.000
  0.000   0.000   0.000   0.000   4.224   0.000   0.000  -0.005
  0.000   0.000  -0.005   0.000   0.000   0.005   0.000   0.000
  0.000   0.000   0.000  -0.005   0.000   0.000   0.005   0.000
  0.000   0.000   0.000   0.000  -0.005   0.000   0.000   0.005
 total augmentation occupancy for first ion, spin component:           1
  1.320  -1.087  -0.002   0.001  -0.001   0.002  -0.001   0.002
 -1.087   1.012   0.001   0.000   0.000  -0.002   0.001  -0.001
 -0.002   0.001   1.125  -0.001   0.001  -0.803   0.001   0.000
  0.001   0.000  -0.001   1.123  -0.001   0.001  -0.801   0.002
 -0.001   0.000   0.001  -0.001   1.121   0.000   0.002  -0.800
  0.002  -0.002  -0.803   0.001   0.000   0.649  -0.002   0.000
 -0.001   0.001   0.001  -0.801   0.002  -0.002   0.648  -0.002
  0.002  -0.001   0.000   0.002  -0.800   0.000  -0.002   0.647


----------------------------------------- Iteration    1(  12)  ---------------------------------------


    POTLOK:  cpu time    0.02: real time    0.02
    SETDIJ:  cpu time    0.02: real time    0.02
    EDDIAG:  cpu time    0.02: real time    0.02
  RMM-DIIS:  cpu time    0.04: real time    0.05
    ORTHCH:  cpu time    0.01: real time    0.01
       DOS:  cpu time    0.00: real time    0.00
    CHARGE:  cpu time    0.02: real time    0.02
    MIXING:  cpu time    0.00: real time    0.00
    --------------------------------------------
      LOOP:  cpu time    0.14: real time    0.14

 eigenvalue-minimisations  :   122
 total energy-change (2. order) :-0.8210953E-06  (-0.6756238E-07)
 number of electron      31.9999999 magnetization 
 augmentation part       -1.7274292 magnetization 

 Broyden mixing:
  rms(total) = 0.62771E-04    rms(broyden)= 0.62733E-04
  rms(prec ) = 0.86946E-04
  weight for this iteration     100.00

 eigenvalues of (default mixing * dielectric matrix)
  average eigenvalue GAMMA=   2.0052
  3.2179  2.7391  2.4973  2.1274  1.4917  0.9973  0.9659

 Free energy of the ion-electron system (eV)
  ---------------------------------------------------
  alpha Z        PSCENC =        12.68944982
  Ewald energy   TEWEN  =      -907.56565268
  -1/2 Hartree   DENC   =       -70.83361104
  -exchange  EXHF       =         0.00000000
  -V(xc)+E(xc)   XCENC  =       -72.91075891
  PAW double counting   =       307.74327916     -166.58469681
  entropy T*S    EENTRO =         0.00000000
  eigenvalues    EBANDS =        37.86341455
  atomic energy  EATOM  =       826.37398168
  ---------------------------------------------------
  free energy    TOTEN  =       -33.22459422 eV

  energy without entropy =      -33.22459422  energy(sigma->0) =      -33.22459422


--------------------------------------------------------------------------------------------------------




 average (electrostatic) potential at core
  the test charge radii are     0.9892
  (the norm of the test charge is              1.0000)
       1 -83.2279       2 -83.2264       3 -83.2273       4 -83.2305       5 -83.2240
       6 -83.2258       7 -83.2297       8 -83.2262
 
 
 
 E-fermi :   6.0566     XC(G=0):  -9.1311     alpha+bet :-11.7379


 k-point   1 :       0.0000    0.0000    0.0000
  band No.  band energies     occupation 
      1      -5.9500      2.00000
      2      -1.8811      2.00000
      3      -1.8747      2.00000
      4      -1.8674      2.00000
      5      -1.8620      2.00000
      6      -1.8560      2.00000
      7      -1.8483      2.00000
      8       3.0422      2.00000
      9       3.0485      2.00000
     10       3.0507      2.00000
     11       3.0513      2.00000
     12       3.0535      2.00000
[...]
    MIXING:  cpu time    0.00: real time    0.00
    --------------------------------------------
      LOOP:  cpu time    0.16: real time    0.16

 Broyden mixing:
  rms(total) = 0.72604E-02    rms(broyden)= 0.72599E-02
  rms(prec ) = 0.12485E-01
  weight for this iteration     100.00

 eigenvalues of (default mixing * dielectric matrix)
  average eigenvalue GAMMA=   2.0625
  3.0039  2.4728  1.1248  1.6487

 Free energy of the ion-electron system (eV)
  ---------------------------------------------------
  -1/2 Hartree   DENC   =        -4.61788086
  -V(xc)+E(xc)   XCENC  =         0.94990594
  PAW double counting   =         3.10494585       -3.15438801
  entropy T*S    EENTRO =         0.00000000
  eigenvalues    EBANDS =       -24.53444109
  ---------------------------------------------------
  free energy    TOTEN  =       -28.25185816 eV

  energy without entropy =      -28.25185816


----------------------------------------- Iteration    3(   7)  ---------------------------------------


   POT+DIJ:  cpu time    0.08: real time    0.08
    HAMIL1:  cpu time    0.01: real time    0.01
    LRDIAG:  cpu time    0.01: real time    0.01
    LRDIIS:  cpu time    0.02: real time    0.02
    LRDIAG:  cpu time    0.01: real time    0.01
    MIXING:  cpu time    0.00: real time    0.00
    --------------------------------------------
      LOOP:  cpu time    0.15: real time    0.15

 Broyden mixing:
  rms(total) = 0.58249E-03    rms(broyden)= 0.58187E-03
  rms(prec ) = 0.11874E-02
  weight for this iteration     100.00

 eigenvalues of (default mixing * dielectric matrix)
  average eigenvalue GAMMA=   1.9359
  3.0886  2.4343  1.6720  1.1147  1.3702

 Free energy of the ion-electron system (eV)
  ---------------------------------------------------
  -1/2 Hartree   DENC   =        -4.63127747
  -V(xc)+E(xc)   XCENC  =         0.95799314
  PAW double counting   =         3.06891235       -3.11781547
  entropy T*S    EENTRO =         0.00000000
  eigenvalues    EBANDS =       -24.57088635
  ---------------------------------------------------
  free energy    TOTEN  =       -28.29307380 eV

  energy without entropy =      -28.29307380


----------------------------------------- Iteration    3(   8)  ---------------------------------------


   POT+DIJ:  cpu time    0.08: real time    0.08
    HAMIL1:  cpu time    0.00: real time    0.01
    LRDIAG:  cpu time    0.01: real time    0.01
    LRDIIS:  cpu time    0.02: real time    0.02
    LRDIAG:  cpu time    0.01: real time    0.01
    MIXING:  cpu time    0.00: real time    0.00
    --------------------------------------------
      LOOP:  cpu time    0.15: real time    0.16

 Broyden mixing:
  rms(total) = 0.27163E-03    rms(broyden)= 0.27155E-03
  rms(prec ) = 0.40549E-03
  weight for this iteration     100.00

 eigenvalues of (default mixing * dielectric matrix)
  average eigenvalue GAMMA=   1.9051
  3.0817  2.4731  1.9835  1.6654  1.0848  1.1423

 Free energy of the ion-electron system (eV)
  ---------------------------------------------------
  -1/2 Hartree   DENC   =        -4.63444577
  -V(xc)+E(xc)   XCENC  =         0.95893822
  PAW double counting   =         3.07125003       -3.12019384
  entropy T*S    EENTRO =         0.00000000
  eigenvalues    EBANDS =       -24.57270755
  ---------------------------------------------------
  free energy    TOTEN  =       -28.29715890 eV

  energy without entropy =      -28.29715890


----------------------------------------- Iteration    3(   9)  ---------------------------------------


   POT+DIJ:  cpu time    0.08: real time    0.09
    HAMIL1:  cpu time    0.01: real time    0.01
    LRDIAG:  cpu time    0.01: real time    0.01
    LRDIIS:  cpu time    0.02: real time    0.02
    LRDIAG:  cpu time    0.01: real time    0.01
    MIXING:  cpu time    0.00: real time    0.00
    --------------------------------------------
      LOOP:  cpu time    0.16: real time    0.16

 Broyden mixing:
  rms(total) = 0.11572E-03    rms(broyden)= 0.11570E-03
  rms(prec ) = 0.17297E-03
  weight for this iteration     100.00

 eigenvalues of (default mixing * dielectric matrix)
  average eigenvalue GAMMA=   1.8962
  3.1716  2.7143  2.4128  1.6776  1.2827  1.1053  0.9094

 Free energy of the ion-electron system (eV)
  ---------------------------------------------------
  -1/2 Hartree   DENC   =        -4.63408099
  -V(xc)+E(xc)   XCENC  =         0.95886906
  PAW double counting   =         3.07303847       -3.12201338
  entropy T*S    EENTRO =         0.00000000
  eigenvalues    EBANDS =       -24.57297946
  ---------------------------------------------------
  free energy    TOTEN  =       -28.29716630 eV

  energy without entropy =      -28.29716630


----------------------------------------- Iteration    3(  10)  ---------------------------------------


   POT+DIJ:  cpu time    0.08: real time    0.08
    HAMIL1:  cpu time    0.00: real time    0.01
    LRDIAG:  cpu time    0.01: real time    0.01
    LRDIIS:  cpu time    0.02: real time    0.02
    LRDIAG:  cpu time    0.01: real time    0.01
    MIXING:  cpu time    0.00: real time    0.00
    --------------------------------------------
      LOOP:  cpu time    0.15: real time    0.16

 Broyden mixing:
  rms(total) = 0.16497E-04    rms(broyden)= 0.16487E-04
  rms(prec ) = 0.25803E-04
  weight for this iteration     100.00

 eigenvalues of (default mixing * dielectric matrix)
  average eigenvalue GAMMA=   1.8333
  3.1935  2.7625  2.4499  1.6691  1.3712  0.9589  1.1367  1.1244

 Free energy of the ion-electron system (eV)
  ---------------------------------------------------
  -1/2 Hartree   DENC   =        -4.63419726
  -V(xc)+E(xc)   XCENC  =         0.95891990
  PAW double counting   =         3.07436391       -3.12336189
  entropy T*S    EENTRO =         0.00000000
  eigenvalues    EBANDS =       -24.57324937
  ---------------------------------------------------
  free energy    TOTEN  =       -28.29752471 eV

  energy without entropy =      -28.29752471


----------------------------------------- Iteration    3(  11)  ---------------------------------------


   POT+DIJ:  cpu time    0.08: real time    0.08
    HAMIL1:  cpu time    0.00: real time    0.01
    LRDIAG:  cpu time    0.01: real time    0.01
    LRDIIS:  cpu time    0.02: real time    0.02
    LRDIAG:  cpu time    0.01: real time    0.01
    MIXING:  cpu time    0.00: real time    0.00
    --------------------------------------------
      LOOP:  cpu time    0.16: real time    0.16

 Broyden mixing:
  rms(total) = 0.41163E-05    rms(broyden)= 0.41141E-05
  rms(prec ) = 0.62888E-05
  weight for this iteration     100.00

 eigenvalues of (default mixing * dielectric matrix)
  average eigenvalue GAMMA=   1.8425
  3.1969  2.7969  2.4364  1.9981  1.6697  1.3634  0.9589  1.1001  1.0619

 Free energy of the ion-electron system (eV)
  ---------------------------------------------------
  -1/2 Hartree   DENC   =        -4.63418627
  -V(xc)+E(xc)   XCENC  =         0.95891177
  PAW double counting   =         3.07446963       -3.12346939
  entropy T*S    EENTRO =         0.00000000
  eigenvalues    EBANDS =       -24.57322860
  ---------------------------------------------------
  free energy    TOTEN  =       -28.29750286 eV

  energy without entropy =      -28.29750286


----------------------------------------- Iteration    3(  12)  ---------------------------------------


   POT+DIJ:  cpu time    0.08: real time    0.08
    HAMIL1:  cpu time    0.00: real time    0.01
    LRDIAG:  cpu time    0.01: real time    0.01
    LRDIIS:  cpu time    0.02: real time    0.02
    LRDIAG:  cpu time    0.01: real time    0.01
    MIXING:  cpu time    0.00: real time    0.00
    --------------------------------------------
      LOOP:  cpu time    0.15: real time    0.15

 Broyden mixing:
  rms(total) = 0.16265E-05    rms(broyden)= 0.16261E-05
  rms(prec ) = 0.23252E-05
  weight for this iteration     100.00

 eigenvalues of (default mixing * dielectric matrix)
  average eigenvalue GAMMA=   1.8372
  3.2032  2.7794  2.4655  2.4180  1.6724  1.3574  1.3574  0.9978  1.0139  1.1068

 Free energy of the ion-electron system (eV)
  ---------------------------------------------------
  -1/2 Hartree   DENC   =        -4.63418700
  -V(xc)+E(xc)   XCENC  =         0.95891194
  PAW double counting   =         3.07440989       -3.12340867
  entropy T*S    EENTRO =         0.00000000
  eigenvalues    EBANDS =       -24.57323159
  ---------------------------------------------------
  free energy    TOTEN  =       -28.29750543 eV

  energy without entropy =      -28.29750543


----------------------------------------- Iteration    3(  13)  ---------------------------------------


   POT+DIJ:  cpu time    0.08: real time    0.08
    HAMIL1:  cpu time    0.00: real time    0.01
    LRDIAG:  cpu time    0.01: real time    0.01
    LRDIIS:  cpu time    0.02: real time    0.02
    LRDIAG:  cpu time    0.01: real time    0.01
    MIXING:  cpu time    0.00: real time    0.00
    --------------------------------------------
      LOOP:  cpu time    0.15: real time    0.16

 Broyden mixing:
  rms(total) = 0.35266E-06    rms(broyden)= 0.35257E-06
  rms(prec ) = 0.57239E-06
  weight for this iteration     100.00

 eigenvalues of (default mixing * dielectric matrix)
  average eigenvalue GAMMA=   1.8257
  3.2076  2.8689  2.4505  2.5680  1.6783  1.6128  1.0004  1.0004  1.1073  1.2942
  1.2942

 Free energy of the ion-electron system (eV)
  ---------------------------------------------------
  -1/2 Hartree   DENC   =        -4.63418928
  -V(xc)+E(xc)   XCENC  =         0.95891227
  PAW double counting   =         3.07437535       -3.12337349
  entropy T*S    EENTRO =         0.00000000
  eigenvalues    EBANDS =       -24.57323142
  ---------------------------------------------------
  free energy    TOTEN  =       -28.29750657 eV

  energy without entropy =      -28.29750657


------------------------ aborting loop because EDIFF is reached ----------------------------------------


 change of polarisation eV/A/(eV/A) component  3 :    -0.075     0.039    50.551
 dielectric tensor                  component  3 :    -0.083     0.043    56.890


--------------------------------------------------------------------------------------------------------


    FORLOC:  cpu time    0.00: real time    0.00
    FORNL :  cpu time    0.09: real time    0.09
    STRESS:  cpu time    0.30: real time    0.30
    FORCOR:  cpu time    0.02: real time    0.02
    FORLOC:  cpu time    0.00: real time    0.00
    FORNL :  cpu time    0.09: real time    0.09
    STRESS:  cpu time    0.30: real time    0.30
    FORCOR:  cpu time    0.02: real time    0.02
    FORNLD:  cpu time    0.01: real time    0.01

 PIEZOELECTRIC TENSOR FIELD DIRECTION 3  (e Angst)
 -----------------------------------------------------------------------------
     0.00668 -0.00002  0.00456           (  0.00001  0.00000  0.00001)
    -0.00001  0.00584 -0.00625           (  0.00000  0.00001  0.00000)
     0.00456 -0.00625 -0.00823           (  0.00001  0.00000  0.00001)

 PIEZOELECTRIC TENSOR FIELD DIRECTION 3  (C/m^2)
 -----------------------------------------------------------------------------
     0.00065  0.00000  0.00045
     0.00000  0.00057 -0.00061
     0.00045 -0.00061 -0.00081


      POSITION         DIRECTION 3           BORN EFFECTIVE CHARGE    (rigid.aug.   ionic)
 -----------------------------------------------------------------------------------------
      5.46767      5.46637      0.00160     0.16687 -0.03667 -5.75609 (  0.21593  4.00000)
      1.36387      1.36910      1.36942    -0.04698 -0.14388 -5.77708 (  0.21592  4.00000)
      2.73660      2.73692      5.46911    -0.18491 -0.02689 -5.77591 (  0.21593  4.00000)
      4.10442      4.10161      1.36830    -0.06039  0.15531 -5.69857 (  0.21596  4.00000)
      2.73411      0.00080      2.73422    -0.16185  0.03609 -5.82957 (  0.21590  4.00000)
      4.10330      1.36672      4.10242     0.06107 -0.16012 -5.81323 (  0.21591  4.00000)
      5.46922      2.73492      2.73146     0.18869  0.02489 -5.74425 (  0.21595  4.00000)
      1.36742      4.09896      4.10678     0.05549  0.14287 -5.82131 (  0.21592  4.00000)
 -----------------------------------------------------------------------------------------
    total drift (improves with k-points):   0.01799 -0.00839-46.21600




--------------------------------------------------------------------------------------------------------


  LATTYP: Found a simple cubic cell.
 ALAT       =     5.4700000000
  
  Lattice vectors:
  
 A1 = (   5.4700000000,   0.0000000000,   0.0000000000)
 A2 = (   0.0000000000,   5.4700000000,   0.0000000000)
 A3 = (   0.0000000000,   0.0000000000,   5.4700000000)


Analysis of symmetry for initial positions (statically):
=====================================================================
 Subroutine PRICEL returns:
 Original cell was already a primitive cell.
 

 Routine SETGRP: Setting up the symmetry group for a 
 simple cubic supercell.


 Subroutine GETGRP returns: Found  1 space group operations
 (whereof  1 operations were pure point group operations)
 out of a pool of 48 trial point group operations.


The static configuration has the point symmetry C_1 .


Analysis of symmetry for dynamics (positions and initial velocities):
=====================================================================
 Subroutine PRICEL returns:
 Original cell was already a primitive cell.
 

 Routine SETGRP: Setting up the symmetry group for a 
 simple cubic supercell.


 Subroutine GETGRP returns: Found  1 space group operations
 (whereof  1 operations were pure point group operations)
 out of a pool of 48 trial point group operations.


The dynamic configuration has the point symmetry C_1 .


 MACROSCOPIC STATIC DIELECTRIC TENSOR (including local field effects in DFT)
 ------------------------------------------------------
          56.874271     0.354696    -0.083133
           0.354696    56.881759     0.043292
          -0.083131     0.043293    56.889995
 ------------------------------------------------------



--------------------------------------------------------------------------------------------------------


  LATTYP: Found a simple cubic cell.
 ALAT       =     5.4700000000
  
  Lattice vectors:
  
 A1 = (   5.4700000000,   0.0000000000,   0.0000000000)
 A2 = (   0.0000000000,   5.4700000000,   0.0000000000)
 A3 = (   0.0000000000,   0.0000000000,   5.4700000000)


Analysis of symmetry for initial positions (statically):
=====================================================================
 Subroutine PRICEL returns:
 Original cell was already a primitive cell.
 

 Routine SETGRP: Setting up the symmetry group for a 
 simple cubic supercell.


 Subroutine GETGRP returns: Found  1 space group operations
 (whereof  1 operations were pure point group operations)
 out of a pool of 48 trial point group operations.


The static configuration has the point symmetry C_1 .


Analysis of symmetry for dynamics (positions and initial velocities):
=====================================================================
 Subroutine PRICEL returns:
 Original cell was already a primitive cell.
 

 Routine SETGRP: Setting up the symmetry group for a 
 simple cubic supercell.


 Subroutine GETGRP returns: Found  1 space group operations
 (whereof  1 operations were pure point group operations)
 out of a pool of 48 trial point group operations.


The dynamic configuration has the point symmetry C_1 .
 
 KPOINTS: Automatic mesh                          

Automatic generation of k-mesh.
Space group operators:
 irot       det(A)        alpha          n_x          n_y          n_z        tau_x        tau_y        tau_z
    1     1.000000     0.000001     1.000000     0.000000     0.000000     0.000000     0.000000     0.000000
 
 Subroutine IBZKPT returns following result:
 ===========================================
 
 Found      1 irreducible k-points:
 
 Following reciprocal coordinates:
            Coordinates               Weight
  0.000000  0.000000  0.000000      1.000000
 
 Following cartesian coordinates:
            Coordinates               Weight
  0.000000  0.000000  0.000000      1.000000
 


--------------------------------------------------------------------------------------------------------




 MACROSCOPIC STATIC DIELECTRIC TENSOR (including local field effects in DFT)
 ------------------------------------------------------
          56.874271     0.354696    -0.083133
           0.354696    56.881759     0.043292
          -0.083131     0.043293    56.889995
 ------------------------------------------------------


 PIEZOELECTRIC TENSOR  for field in x, y, z        (e  Angst)
          XX          YY          ZZ          XY          YZ          ZX
  --------------------------------------------------------------------------------
  x     0.00161    -0.01161     0.00499     0.00358     0.00021    -0.00718
  y     0.01793     0.00275    -0.00620    -0.00119    -0.00635    -0.00036
  z     0.00668     0.00584    -0.00823    -0.00001    -0.00625     0.00456

 PIEZOELECTRIC TENSOR  for field in x, y, z        (C/m^2)
          XX          YY          ZZ          XY          YZ          ZX
  --------------------------------------------------------------------------------
  x     0.00016    -0.00114     0.00049     0.00035     0.00002    -0.00070
  y     0.00175     0.00027    -0.00061    -0.00012    -0.00062    -0.00003
  z     0.00065     0.00057    -0.00081     0.00000    -0.00061     0.00045
 
 BORN EFFECTIVE CHARGES (in e, cummulative output)
 -------------------------------------------------
 ion    1
    1    -5.74227    -0.16200    -0.13290
    2     0.09767    -5.78810     0.04067
    3     0.16687    -0.03667    -5.75609
 ion    2
    1    -5.80351    -0.11758     0.05575
    2     0.17807    -5.81221     0.11429
    3    -0.04698    -0.14388    -5.77708
 ion    3
    1    -5.80135     0.13868     0.12959
    2    -0.12048    -5.75735     0.09297
    3    -0.18491    -0.02689    -5.77591
 ion    4
    1    -5.71291     0.09540     0.05160
    2    -0.20083    -5.70089    -0.10479
    3    -0.06039     0.15531    -5.69857
 ion    5
    1    -5.84622    -0.15039     0.14063
    2     0.10347    -5.85140    -0.08497
    3    -0.16185     0.03609    -5.82957
 ion    6
    1    -5.78701     0.13848    -0.04610
    2    -0.17848    -5.80999     0.10207
    3     0.06107    -0.16012    -5.81323
 ion    7
    1    -5.71810     0.13316    -0.11917
    2    -0.12088    -5.71055    -0.05625
    3     0.18869     0.02489    -5.74425
 ion    8
    1    -5.80298    -0.15570    -0.06142
    2     0.16146    -5.78405    -0.11238
    3     0.05549     0.14287    -5.82131


--------------------------------------------------------------------------------------------------------


     LOOP+:  cpu time   20.00: real time   20.40
    4ORBIT:  cpu time    0.00: real time    0.00

 total amount of memory used by VASP on root node    32224. kBytes
========================================================================

   base      :      30000. kBytes
   nonl-proj :        202. kBytes
   fftplans  :        782. kBytes
   grid      :       1198. kBytes
   one-center:         24. kBytes
   wavefun   :         18. kBytes
 
  
  
 General timing and accounting informations for this job:
 ========================================================
  
                  Total CPU time used (sec):       21.422
                            User time (sec):       16.181
                          System time (sec):        5.241
                         Elapsed time (sec):       23.497
  
                   Maximum memory used (kb):       82824.
                   Average memory used (kb):           0.
  
                          Minor page faults:       207080
                          Major page faults:            0
                 Voluntary context switches:         1545
