 vasp.5.3.3 18Dez12 (build Jan  9 2014 12:00:49) complex                        
  
 executed on             LinuxIFC date 2014.01.29  10:01:40
 running on   48 total cores
 distrk:  each k-point on   48 cores,    1 groups
 distr:  one band on NCORES_PER_BAND=   1 cores,   48 groups


--------------------------------------------------------------------------------------------------------


 INCAR:
 POTCAR:    PAW Si                                

 ----------------------------------------------------------------------------- 
|                                                                             |
|           W    W    AA    RRRRR   N    N  II  N    N   GGGG   !!!           |
|           W    W   A  A   R    R  NN   N  II  NN   N  G    G  !!!           |
|           W    W  A    A  R    R  N N  N  II  N N  N  G       !!!           |
|           W WW W  AAAAAA  RRRRR   N  N N  II  N  N N  G  GGG   !            |
|           WW  WW  A    A  R   R   N   NN  II  N   NN  G    G                |
|           W    W  A    A  R    R  N    N  II  N    N   GGGG   !!!           |
|                                                                             |
|      For optimal performance we recommend that you set                      |
|        NPAR = 4 - approx SQRT( number of cores)                             |
|      (number of cores/NPAR must be integer)                                 |
|      This setting will greatly improve the performance of VASP for DFT.     |
|      The default NPAR=number of cores might be grossly inefficient          |
|      on modern multi-core architectures or massively parallel machines.     |
|      Do your own testing.                                                   |
|      Unfortunately you need to use the default for hybrid, GW and RPA       |
|      calculations.                                                          |
|                                                                             |
 ----------------------------------------------------------------------------- 

 POTCAR:    PAW Si                                
   VRHFIN =Si: s2p2                                                             
   LEXCH  = 91                                                                  
   EATOM  =   103.3076 eV,    7.5929 Ry                                         
                                                                                
   TITEL  = PAW Si                                                              
   LULTRA =        F    use ultrasoft PP ?                                      
   IUNSCR =        1    unscreen: 0-lin 1-nonlin 2-no                           
   RPACOR =    1.500    partial core radius                                     
   POMASS =   28.085; ZVAL   =    4.000    mass and valenz                      
   RCORE  =    1.900    outmost cutoff radius                                   
   RWIGS  =    2.480; RWIGS  =    1.312    wigner-seitz radius (au A)           
   ENMAX  =  245.435; ENMIN  =  184.076 eV                                      
   ICORE  =        2    local potential                                         
   LCOR   =        T    correct aug charges                                     
   LPAW   =        T    paw PP                                                  
   EAUG   =  322.069                                                            
   DEXC   =    -.001                                                            
   RMAX   =    2.943    core radius for proj-oper                               
   RAUG   =    1.300    factor for augmentation sphere                          
   RDEP   =    1.993    core radius for depl-charge                             
   QCUT   =   -4.247; QGAM   =    8.494    optimization parameters              
                                                                                
   Description                                                                  
     l     E      TYP  RCUT    TYP  RCUT                                        
     0   .000     23  1.900                                                     
     0   .000     23  1.900                                                     
     1   .000     23  1.900                                                     
     1   .000     23  1.900                                                     
     2   .000      7  1.900                                                     
  local pseudopotential read in
  partial core-charges read in
  atomic valenz-charges read in
  non local Contribution for L=           0  read in
    real space projection operators read in
  non local Contribution for L=           0  read in
    real space projection operators read in
  non local Contribution for L=           1  read in
    real space projection operators read in
  non local Contribution for L=           1  read in
    real space projection operators read in
    PAW grid and wavefunctions read in
 
   number of l-projection  operators is LMAX  =           4
   number of lm-projection operators is LMMAX =           8
 
  PAW Si                                :
 energy of atom  1       EATOM= -103.3076
 kinetic energy error for atom=    0.0109 (will be added to EATOM!!)
 
 
 POSCAR: OUTCAR.0009.+1.out 1.0e-02              
  positions in cartesian coordinates
  No initial velocities read in
 exchange correlation table for  LEXCH =        7
   RHO(1)=    0.500       N(1)  =     2000
   RHO(2)=  100.500       N(2)  =     4000

 VTST: version 3.0c, (01/09/14)

 CHAIN: initializing optimizer
 
 OPT: Using VASP Dynamics algorithm
 CHAIN: Read ICHAIN            0
 
 POSCAR: OUTCAR.0009.+1.out 1.0e-02              
  positions in cartesian coordinates
  No initial velocities read in
 


--------------------------------------------------------------------------------------------------------


 ion  position               nearest neighbor table
   1  0.000  0.001  0.000-   6 2.37   2 2.37   4 2.37   8 2.37
   2  0.251  0.250  0.250-   3 2.36   1 2.37   5 2.37   7 2.37
   3  0.500  0.500  0.000-   2 2.36   6 2.37   4 2.37   8 2.37
   4  0.750  0.750  0.250-   5 2.37   7 2.37   3 2.37   1 2.37
   5  0.500  0.000  0.500-   4 2.37   2 2.37   8 2.37   6 2.37
   6  0.750  0.250  0.751-   1 2.37   3 2.37   5 2.37   7 2.37
   7  0.000  0.501  0.500-   4 2.37   8 2.37   6 2.37   2 2.37
   8  0.251  0.750  0.750-   5 2.37   7 2.37   3 2.37   1 2.37
 
  LATTYP: Found a simple cubic cell.
 ALAT       =     5.4700000000
  
  Lattice vectors:
  
 A1 = (   5.4700000000,   0.0000000000,   0.0000000000)
 A2 = (   0.0000000000,   5.4700000000,   0.0000000000)
 A3 = (   0.0000000000,   0.0000000000,   5.4700000000)


Analysis of symmetry for initial positions (statically):
=====================================================================
 Subroutine PRICEL returns:
 Original cell was already a primitive cell.
 

 Routine SETGRP: Setting up the symmetry group for a 
 simple cubic supercell.


 Subroutine GETGRP returns: Found  1 space group operations
 (whereof  1 operations were pure point group operations)
 out of a pool of 48 trial point group operations.


The static configuration has the point symmetry C_1 .


Analysis of symmetry for dynamics (positions and initial velocities):
=====================================================================
 Subroutine PRICEL returns:
 Original cell was already a primitive cell.
 

 Routine SETGRP: Setting up the symmetry group for a 
 simple cubic supercell.


 Subroutine GETGRP returns: Found  1 space group operations
 (whereof  1 operations were pure point group operations)
 out of a pool of 48 trial point group operations.


The dynamic configuration has the point symmetry C_1 .


 irot  :   1
 --------------------------------------------------------------------
 isymop:   1   0   0
           0   1   0
           0   0   1

 gtrans:     0.0000000     0.0000000     0.0000000

 ptrans:     0.0000000     0.0000000     0.0000000
 rotmap:
 (   1->   1)  (   2->   2)  (   3->   3)  (   4->   4)  (   5->   5) 
 (   6->   6)  (   7->   7)  (   8->   8) 
 
 
 KPOINTS: Automatic mesh                          

Automatic generation of k-mesh.
Space group operators:
 irot       det(A)        alpha          n_x          n_y          n_z        tau_x        tau_y        tau_z
    1     1.000000     0.000001     1.000000     0.000000     0.000000     0.000000     0.000000     0.000000
 
 Subroutine IBZKPT returns following result:
 ===========================================
 
 Found      1 irreducible k-points:
 
 Following reciprocal coordinates:
            Coordinates               Weight
  0.000000  0.000000  0.000000      1.000000
 
 Following cartesian coordinates:
            Coordinates               Weight
  0.000000  0.000000  0.000000      1.000000
 
 
 Subroutine IBZKPT_HF returns following result:
 ==============================================
 
 Found      1 k-points in 1st BZ
 the following      1 k-points will be used (e.g. in the exchange kernel)
 Following reciprocal coordinates:   # in IRBZ
  0.000000  0.000000  0.000000       1 t-inv F


--------------------------------------------------------------------------------------------------------




 Dimension of arrays:
   k-points           NKPTS =      1   k-points in BZ     NKDIM =      1   number of bands    NBANDS=     48
   number of dos      NEDOS =    301   number of ions     NIONS =      8
   non local maximal  LDIM  =      4   non local SUM 2l+1 LMDIM =      8
   total plane-waves  NPLWV =  21952
   max r-space proj   IRMAX =      1   max aug-charges    IRDMAX=  36071
   dimension x,y,z NGX =    28 NGY =   28 NGZ =   28
   dimension x,y,z NGXF=    56 NGYF=   56 NGZF=   56
   support grid    NGXF=   112 NGYF=  112 NGZF=  112
   ions per type =               8
 NGX,Y,Z   is equivalent  to a cutoff of   8.51,  8.51,  8.51 a.u.
 NGXF,Y,Z  is equivalent  to a cutoff of  17.02, 17.02, 17.02 a.u.


 I would recommend the setting:
   dimension x,y,z NGX =    19 NGY =   19 NGZ =   19
 SYSTEM =  NAPTHA04                                
 POSCAR =  OUTCAR.0009.+1.out 1.0e-02              

 Startparameter for this run:
   NWRITE =      3    write-flag & timer
   PREC   = normal    normal or accurate (medium, high low for compatibility)
   ISTART =      0    job   : 0-new  1-cont  2-samecut
   ICHARG =      2    charge: 1-file 2-atom 10-const
   ISPIN  =      1    spin polarized calculation?
   LNONCOLLINEAR =      F non collinear calculations
   LSORBIT =      F    spin-orbit coupling
   INIWAV =      1    electr: 0-lowe 1-rand  2-diag
   LASPH  =      F    aspherical Exc in radial PAW
   METAGGA=      F    non-selfconsistent MetaGGA calc.

 Electronic Relaxation 1
   ENCUT  =  200.0 eV  14.70 Ry    3.83 a.u.   6.31  6.31  6.31*2*pi/ulx,y,z
   ENINI  =  200.0     initial cutoff
   ENAUG  =  322.1 eV  augmentation charge cutoff
   NELM   =     60;   NELMIN=  2; NELMDL= -5     # of ELM steps 
   EDIFF  = 0.1E-07   stopping-criterion for ELM
   LREAL  =      F    real-space projection
   NLSPLINE    = F    spline interpolate recip. space projectors
   LCOMPAT=      F    compatible to vasp.4.4
   GGA_COMPAT  = T    GGA compatible to vasp.4.4-vasp.4.6
   LMAXPAW     = -100 max onsite density
   LMAXMIX     =    2 max onsite mixed and CHGCAR
   VOSKOWN=      0    Vosko Wilk Nusair interpolation
   ROPT   =    0.00000
 Ionic relaxation
   EDIFFG = 0.1E-06   stopping-criterion for IOM
   NSW    =      0    number of steps for IOM
   NBLOCK =      1;   KBLOCK =      1    inner block; outer block 
   IBRION =     -1    ionic relax: 0-MD 1-quasi-New 2-CG
   NFREE  =      0    steps in history (QN), initial steepest desc. (CG)
   ISIF   =      2    stress and relaxation
   IWAVPR =     10    prediction:  0-non 1-charg 2-wave 3-comb
   ISYM   =      2    0-nonsym 1-usesym 2-fastsym
   LCORR  =      T    Harris-Foulkes like correction to forces

   POTIM  = 0.5000    time-step for ionic-motion
   TEIN   =    0.0    initial temperature
   TEBEG  =    0.0;   TEEND  =   0.0 temperature during run
   SMASS  =  -3.00    Nose mass-parameter (am)
   estimated Nose-frequenzy (Omega)   =  0.10E-29 period in steps =****** mass=  -0.684E-27a.u.
   SCALEE = 1.0000    scale energy and forces
   NPACO  =    256;   APACO  = 16.0  distance and # of slots for P.C.
   PSTRESS=    0.0 pullay stress

  Mass of Ions in am
   POMASS =  28.09
  Ionic Valenz
   ZVAL   =   4.00
  Atomic Wigner-Seitz radii
   RWIGS  =  -1.00
  virtual crystal weights 
   VCA    =   1.00
   NELECT =      32.0000    total number of electrons
   NUPDOWN=      -1.0000    fix difference up-down

 DOS related values:
   EMIN   =  10.00;   EMAX   =-10.00  energy-range for DOS
   EFERMI =   0.00
   ISMEAR =     0;   SIGMA  =   0.02  broadening in eV -4-tet -1-fermi 0-gaus

 Electronic relaxation 2 (details)
   IALGO  =     68    algorithm
   LDIAG  =      T    sub-space diagonalisation (order eigenvalues)
   LSUBROT=      T    optimize rotation matrix (better conditioning)
   TURBO    =      0    0=normal 1=particle mesh
   IRESTART =      0    0=no restart 2=restart with 2 vectors
   NREBOOT  =      0    no. of reboots
   NMIN     =      0    reboot dimension
   EREF     =   0.00    reference energy to select bands
   IMIX   =      4    mixing-type and parameters
     AMIX     =   0.40;   BMIX     =  1.00
     AMIX_MAG =   1.60;   BMIX_MAG =  1.00
     AMIN     =   0.10
     WC   =   100.;   INIMIX=   1;  MIXPRE=   1;  MAXMIX= -45

 Intra band minimization:
   WEIMIN = 0.0000     energy-eigenvalue tresh-hold
   EBREAK =  0.52E-10  absolut break condition
   DEPER  =   0.30     relativ break condition  

   TIME   =   0.40     timestep for ELM

  volume/ion in A,a.u.               =      20.46       138.06
  Fermi-wavevector in a.u.,A,eV,Ry     =   0.950176  1.795573 12.283814  0.902835
  Thomas-Fermi vector in A             =   2.078528
 
 Write flags
   LWAVE  =      F    write WAVECAR
   LCHARG =      F    write CHGCAR
   LVTOT  =      F    write LOCPOT, total local potential
   LVHAR  =      F    write LOCPOT, Hartree potential only
   LELF   =      F    write electronic localiz. function (ELF)
   LORBIT =      0    0 simple, 1 ext, 2 COOP (PROOUT)


 Dipole corrections
   LMONO  =      F    monopole corrections only (constant potential shift)
   LDIPOL =      F    correct potential (dipole corrections)
   IDIPOL =      0    1-x, 2-y, 3-z, 4-all directions 
   EPSILON=  1.0000000 bulk dielectric constant

 Exchange correlation treatment:
   GGA     =    --    GGA type
   LEXCH   =     7    internal setting for exchange type
   VOSKOWN=      0    Vosko Wilk Nusair interpolation
   LHFCALC =     F    Hartree Fock is set to
   LHFONE  =     F    Hartree Fock one center treatment
   AEXX    =    0.0000 exact exchange contribution

 Linear response parameters
   LEPSILON=     T    determine dielectric tensor
   LRPA    =     F    only Hartree local field effects (RPA)
   LNABLA  =     F    use nabla operator in PAW spheres
   LVEL    =     F    velocity operator in full k-point grid
   LINTERFAST=   F  fast interpolation
   KINTER  =     0    interpolate to denser k-point grid
   CSHIFT  =0.1000    complex shift for real part using Kramers Kronig
   OMEGAMAX=  -1.0    maximum frequency
   DEG_THRESHOLD= 0.2000000E-02 threshold for treating states as degnerate
   RTIME   =    0.100 relaxation time in fs

 Orbital magnetization related:
   ORBITALMAG=     F  switch on orbital magnetization
   LCHIMAG   =     F  perturbation theory with respect to B field
   DQ        =  0.001000  dq finite difference perturbation B field



--------------------------------------------------------------------------------------------------------


 Static calculation
 charge density and potential will be updated during run
 non-spin polarized calculation
 RMM-DIIS sequential band-by-band and
  variant of blocked Davidson during initial phase
 perform sub-space diagonalisation
    before iterative eigenvector-optimisation
 modified Broyden-mixing scheme, WC =      100.0
 initial mixing is a Kerker type mixing with AMIX =  0.4000 and BMIX =      1.0000
 Hartree-type preconditioning will be used
 using additional bands           32
 reciprocal scheme for non local part
 use partial core corrections
 calculate Harris-corrections to forces 
   (improved forces if not selfconsistent)
 use gradient corrections 
 use of overlap-Matrix (Vanderbilt PP)
 Gauss-broadening in eV      SIGMA  =   0.02


--------------------------------------------------------------------------------------------------------


  energy-cutoff  :      200.00
  volume of cell :      163.67
      direct lattice vectors                 reciprocal lattice vectors
     5.470000000  0.000000000  0.000000000     0.182815356  0.000000000  0.000000000
     0.000000000  5.470000000  0.000000000     0.000000000  0.182815356  0.000000000
     0.000000000  0.000000000  5.470000000     0.000000000  0.000000000  0.182815356

  length of vectors
     5.470000000  5.470000000  5.470000000     0.182815356  0.182815356  0.182815356


 
 k-points in units of 2pi/SCALE and weight: Automatic mesh                          
   0.00000000  0.00000000  0.00000000       1.000
 
 k-points in reciprocal lattice and weights: Automatic mesh                          
   0.00000000  0.00000000  0.00000000       1.000
 
 position of ions in fractional coordinates (direct lattice) 
   0.00019146  0.00065684  0.00041741
   0.25065684  0.25041741  0.24986715
   0.50041741  0.49986715  0.00026258
   0.74986715  0.75026258  0.25035439
   0.50026258  0.00035439  0.50002797
   0.75035439  0.25002797  0.75065299
   0.00002797  0.50065299  0.49997931
   0.25065299  0.74997931  0.75003050
 
 position of ions in cartesian coordinates  (Angst):
   0.00104729  0.00359294  0.00228325
   1.37109294  1.36978325  1.36677328
   2.73728325  2.73427328  0.00143633
   4.10177328  4.10393633  1.36943850
   2.73643633  0.00193850  2.73515302
   4.10443850  1.36765302  4.10607186
   0.00015302  2.73857186  2.73488682
   1.37107186  4.10238682  4.10266685
 


--------------------------------------------------------------------------------------------------------


 k-point  1 :   0.0000 0.0000 0.0000  plane waves:    1021

 maximum and minimum number of plane-waves per node :      1021     1021

 maximum number of plane-waves:      1021
 maximum index in each direction: 
   IXMAX=    6   IYMAX=    6   IZMAX=    6
   IXMIN=   -6   IYMIN=   -6   IZMIN=   -6

 NGX is ok and might be reduce to  26
 NGY is ok and might be reduce to  26
 NGZ is ok and might be reduce to  26

 serial   3D FFT for wavefunctions
 parallel 3D FFT for charge:
    minimum data exchange during FFTs selected (reduces bandwidth)


 total amount of memory used by VASP on root node    32224. kBytes
========================================================================

   base      :      30000. kBytes
   nonl-proj :        202. kBytes
   fftplans  :        782. kBytes
   grid      :       1198. kBytes
   one-center:         24. kBytes
   wavefun   :         18. kBytes
 
 Broyden mixing: mesh for mixing (old mesh)
   NGX = 13   NGY = 13   NGZ = 13
  (NGX  = 56   NGY  = 56   NGZ  = 56)
  gives a total of   2197 points

 initial charge density was supplied:
 charge density of overlapping atoms calculated
 number of electron      32.0000000 magnetization 
 keeping initial charge density in first step


--------------------------------------------------------------------------------------------------------


 Maximum index for augmentation-charges         1782 (set IRDMAX)


--------------------------------------------------------------------------------------------------------


 First call to EWALD:  gamma=   0.324
 Maximum number of real-space cells 3x 3x 3
 Maximum number of reciprocal cells 3x 3x 3

 FEWALD executed in parallel
    FEWALD:  cpu time    0.00: real time    0.00


----------------------------------------- Iteration    1(   1)  ---------------------------------------


    POTLOK:  cpu time    0.03: real time    0.04
    SETDIJ:  cpu time    0.02: real time    0.02
     EDDAV:  cpu time    0.39: real time    0.40
       DOS:  cpu time    0.00: real time    0.00
    --------------------------------------------
      LOOP:  cpu time    0.45: real time    0.46

 eigenvalue-minimisations  :    96
 total energy-change (2. order) :-0.1013239E+02  (-0.7956181E+03)
 number of electron      32.0000000 magnetization 
 augmentation part       32.0000000 magnetization 

 Free energy of the ion-electron system (eV)
  ---------------------------------------------------
  alpha Z        PSCENC =        12.68944982
  Ewald energy   TEWEN  =      -907.56703329
  -1/2 Hartree   DENC   =       -45.63622814
  -exchange  EXHF       =         0.00000000
  -V(xc)+E(xc)   XCENC  =       -76.79671461
  PAW double counting   =       265.93453375     -123.69690146
  entropy T*S    EENTRO =        -0.00014994
  eigenvalues    EBANDS =        38.56667106
  atomic energy  EATOM  =       826.37398168
  ---------------------------------------------------
  free energy    TOTEN  =       -10.13239113 eV

  energy without entropy =      -10.13224119  energy(sigma->0) =      -10.13231616


--------------------------------------------------------------------------------------------------------




 average (electrostatic) potential at core
  the test charge radii are     0.9892
  (the norm of the test charge is              1.0000)
       1 -84.3486       2 -84.3524       3 -84.3551       4 -84.3522       5 -84.3517
       6 -84.3513       7 -84.3472       8 -84.3465
 
 
 
 E-fermi :   6.6082     XC(G=0):  -9.5533     alpha+bet :-11.7379


 k-point   1 :       0.0000    0.0000    0.0000
  band No.  band energies     occupation 
      1      -6.5896      2.00000
      2      -2.4117      2.00000
      3      -2.2540      2.00000
      4      -2.1192      2.00000
      5      -2.0322      2.00000
      6      -1.8726      2.00000
      7      -1.6767      2.00000
      8       2.7440      2.00000
      9       2.8487      2.00000
     10       2.9953      2.00000
     11       3.1585      2.00000
     12       3.3478      2.00000
     13       4.0810      2.00000
     14       6.1357      2.00000
     15       6.3650      2.00000
     16       6.5634      1.99846
     17       6.6530      0.00154
     18       6.8037      0.00000
     19       6.9068      0.00000
     20       7.1736      0.00000
     21       7.3802      0.00000
     22       8.0467      0.00000
     23       8.9826      0.00000
     24       9.3715      0.00000
     25      10.4561      0.00000
     26      11.4542      0.00000
     27      13.5065      0.00000
     28      14.7765      0.00000
     29      16.5580      0.00000
     30      16.8938      0.00000
     31      17.3603      0.00000
     32      17.5832      0.00000
     33      17.9282      0.00000
     34      18.1259      0.00000
     35      18.4950      0.00000
     36      18.8820      0.00000
     37      19.3724      0.00000
     38      19.5127      0.00000
     39      19.8640      0.00000
     40      20.2470      0.00000
     41      21.0887      0.00000
     42      21.6763      0.00000
     43      22.1818      0.00000
     44      22.7610      0.00000
     45      23.8995      0.00000
     46      24.3994      0.00000
     47      24.8148      0.00000
     48      25.8411      0.00000


--------------------------------------------------------------------------------------------------------


 soft charge-density along one line, spin component           1
         0         1         2         3         4         5         6         7         8         9
 total charge-density along one line
 
 pseudopotential strength for first ion, spin component:           1
 18.662   0.000   0.000   0.000   0.000   0.000   0.000   0.000
  0.000   0.006   0.000   0.000   0.000   0.000   0.000   0.000
  0.000   0.000   4.216   0.000   0.000  -0.004   0.000   0.000
  0.000   0.000   0.000   4.216   0.000   0.000  -0.004   0.000
  0.000   0.000   0.000   0.000   4.216   0.000   0.000  -0.004
  0.000   0.000  -0.004   0.000   0.000   0.005   0.000   0.000
  0.000   0.000   0.000  -0.004   0.000   0.000   0.005   0.000
  0.000   0.000   0.000   0.000  -0.004   0.000   0.000   0.005
 total augmentation occupancy for first ion, spin component:           1
  2.000   0.000   0.000   0.000   0.000   0.000   0.000   0.000
  0.000   0.000   0.000   0.000   0.000   0.000   0.000   0.000
  0.000   0.000   0.667   0.000   0.000   0.000   0.000   0.000
  0.000   0.000   0.000   0.667   0.000   0.000   0.000   0.000
  0.000   0.000   0.000   0.000   0.667   0.000   0.000   0.000
  0.000   0.000   0.000   0.000   0.000   0.000   0.000   0.000
  0.000   0.000   0.000   0.000   0.000   0.000   0.000   0.000
  0.000   0.000   0.000   0.000   0.000   0.000   0.000   0.000


----------------------------------------- Iteration    1(   2)  ---------------------------------------


     EDDAV:  cpu time    1.48: real time    1.48
       DOS:  cpu time    0.00: real time    0.00
    --------------------------------------------
      LOOP:  cpu time    1.49: real time    1.50

 eigenvalue-minimisations  :   144
 total energy-change (2. order) :-0.2431792E+02  (-0.2431644E+02)
 number of electron      32.0000000 magnetization 
 augmentation part       32.0000000 magnetization 

 Free energy of the ion-electron system (eV)
  ---------------------------------------------------
  alpha Z        PSCENC =        12.68944982
  Ewald energy   TEWEN  =      -907.56703329
  -1/2 Hartree   DENC   =       -45.63622814
  -exchange  EXHF       =         0.00000000
  -V(xc)+E(xc)   XCENC  =       -76.79671461
  PAW double counting   =       265.93453375     -123.69690146
  entropy T*S    EENTRO =         0.00000000
  eigenvalues    EBANDS =        14.24860182
  atomic energy  EATOM  =       826.37398168
  ---------------------------------------------------
  free energy    TOTEN  =       -34.45031043 eV

  energy without entropy =      -34.45031043  energy(sigma->0) =      -34.45031043


--------------------------------------------------------------------------------------------------------




 average (electrostatic) potential at core
  the test charge radii are     0.9892
  (the norm of the test charge is              1.0000)
       1 -84.3486       2 -84.3524       3 -84.3551       4 -84.3522       5 -84.3517
       6 -84.3513       7 -84.3472       8 -84.3465
 
 
 
 E-fermi :   5.2517     XC(G=0):  -9.5533     alpha+bet :-11.7379


 k-point   1 :       0.0000    0.0000    0.0000
  band No.  band energies     occupation 
      1      -6.6371      2.00000
      2      -2.6439      2.00000
      3      -2.6363      2.00000
      4      -2.6305      2.00000
      5      -2.6273      2.00000
      6      -2.6257      2.00000
      7      -2.6113      2.00000
      8       2.3749      2.00000
      9       2.3771      2.00000
     10       2.3805      2.00000
     11       2.3824      2.00000
     12       2.3853      2.00000
     13       2.3961      2.00000
     14       5.0653      2.00000
     15       5.0836      2.00000
     16       5.0913      2.00000
     17       6.1481      0.00000
     18       6.1496      0.00000
     19       6.1538      0.00000
     20       6.1594      0.00000
     21       6.1610      0.00000
     22       6.1679      0.00000
     23       7.8517      0.00000
     24       7.8571      0.00000
     25       7.8628      0.00000
     26       8.1267      0.00000
     27      13.2005      0.00000
     28      13.2622      0.00000
     29      13.2700      0.00000
     30      15.0989      0.00000
     31      15.1330      0.00000
     32      15.1748      0.00000
     33      15.2497      0.00000
     34      15.3101      0.00000
     35      15.6332      0.00000
     36      16.3841      0.00000
     37      16.4195      0.00000
     38      16.4542      0.00000
     39      16.5288      0.00000
     40      16.7204      0.00000
     41      16.7488      0.00000
     42      16.7678      0.00000
     43      16.8625      0.00000
     44      17.2328      0.00000
     45      17.9090      0.00000
     46      17.9527      0.00000
     47      17.9870      0.00000
     48      18.0222      0.00000


--------------------------------------------------------------------------------------------------------


 soft charge-density along one line, spin component           1
         0         1         2         3         4         5         6         7         8         9
 total charge-density along one line
 
 pseudopotential strength for first ion, spin component:           1
 18.662   0.000   0.000   0.000   0.000   0.000   0.000   0.000
  0.000   0.006   0.000   0.000   0.000   0.000   0.000   0.000
  0.000   0.000   4.216   0.000   0.000  -0.004   0.000   0.000
  0.000   0.000   0.000   4.216   0.000   0.000  -0.004   0.000
  0.000   0.000   0.000   0.000   4.216   0.000   0.000  -0.004
  0.000   0.000  -0.004   0.000   0.000   0.005   0.000   0.000
  0.000   0.000   0.000  -0.004   0.000   0.000   0.005   0.000
  0.000   0.000   0.000   0.000  -0.004   0.000   0.000   0.005
 total augmentation occupancy for first ion, spin component:           1
  2.000   0.000   0.000   0.000   0.000   0.000   0.000   0.000
  0.000   0.000   0.000   0.000   0.000   0.000   0.000   0.000
  0.000   0.000   0.667   0.000   0.000   0.000   0.000   0.000
  0.000   0.000   0.000   0.667   0.000   0.000   0.000   0.000
  0.000   0.000   0.000   0.000   0.667   0.000   0.000   0.000
  0.000   0.000   0.000   0.000   0.000   0.000   0.000   0.000
  0.000   0.000   0.000   0.000   0.000   0.000   0.000   0.000
  0.000   0.000   0.000   0.000   0.000   0.000   0.000   0.000


----------------------------------------- Iteration    1(   3)  ---------------------------------------


     EDDAV:  cpu time    0.38: real time    0.39
       DOS:  cpu time    0.00: real time    0.00
    --------------------------------------------
      LOOP:  cpu time    0.39: real time    0.39

 eigenvalue-minimisations  :    96
 total energy-change (2. order) :-0.1674425E+00  (-0.1674425E+00)
 number of electron      32.0000000 magnetization 
 augmentation part       32.0000000 magnetization 

 Free energy of the ion-electron system (eV)
  ---------------------------------------------------
  alpha Z        PSCENC =        12.68944982
  Ewald energy   TEWEN  =      -907.56703329
  -1/2 Hartree   DENC   =       -45.63622814
  -exchange  EXHF       =         0.00000000
  -V(xc)+E(xc)   XCENC  =       -76.79671461
  PAW double counting   =       265.93453375     -123.69690146
  entropy T*S    EENTRO =         0.00000000
  eigenvalues    EBANDS =        14.08115928
  atomic energy  EATOM  =       826.37398168
  ---------------------------------------------------
  free energy    TOTEN  =       -34.61775297 eV

  energy without entropy =      -34.61775297  energy(sigma->0) =      -34.61775297


--------------------------------------------------------------------------------------------------------




 average (electrostatic) potential at core
  the test charge radii are     0.9892
  (the norm of the test charge is              1.0000)
       1 -84.3486       2 -84.3524       3 -84.3551       4 -84.3522       5 -84.3517
       6 -84.3513       7 -84.3472       8 -84.3465
 
 
 
 E-fermi :   5.2235     XC(G=0):  -9.5533     alpha+bet :-11.7379


 k-point   1 :       0.0000    0.0000    0.0000
  band No.  band energies     occupation 
      1      -6.6372      2.00000
      2      -2.6462      2.00000
      3      -2.6378      2.00000
      4      -2.6332      2.00000
      5      -2.6290      2.00000
      6      -2.6284      2.00000
      7      -2.6137      2.00000
      8       2.3712      2.00000
      9       2.3748      2.00000
     10       2.3771      2.00000
     11       2.3781      2.00000
     12       2.3797      2.00000
     13       2.3850      2.00000
     14       5.0583      2.00000
     15       5.0682      2.00000
     16       5.0735      2.00000
     17       6.1447      0.00000
     18       6.1472      0.00000
     19       6.1510      0.00000
     20       6.1555      0.00000
     21       6.1574      0.00000
     22       6.1635      0.00000
     23       7.8457      0.00000
     24       7.8487      0.00000
     25       7.8542      0.00000
     26       8.1178      0.00000
     27      13.1845      0.00000
     28      13.1866      0.00000
     29      13.2694      0.00000
     30      15.0827      0.00000
     31      15.0884      0.00000
     32      15.0962      0.00000
     33      15.1113      0.00000
     34      15.1264      0.00000
     35      15.1801      0.00000
     36      16.3200      0.00000
     37      16.3311      0.00000
     38      16.3397      0.00000
     39      16.3590      0.00000
     40      16.4304      0.00000
     41      16.4914      0.00000
     42      16.7140      0.00000
     43      16.7159      0.00000
     44      16.8150      0.00000
     45      17.8807      0.00000
     46      17.8928      0.00000
     47      17.9158      0.00000
     48      17.9402      0.00000


--------------------------------------------------------------------------------------------------------


 soft charge-density along one line, spin component           1
         0         1         2         3         4         5         6         7         8         9
 total charge-density along one line
 
 pseudopotential strength for first ion, spin component:           1
 18.662   0.000   0.000   0.000   0.000   0.000   0.000   0.000
  0.000   0.006   0.000   0.000   0.000   0.000   0.000   0.000
  0.000   0.000   4.216   0.000   0.000  -0.004   0.000   0.000
  0.000   0.000   0.000   4.216   0.000   0.000  -0.004   0.000
  0.000   0.000   0.000   0.000   4.216   0.000   0.000  -0.004
  0.000   0.000  -0.004   0.000   0.000   0.005   0.000   0.000
  0.000   0.000   0.000  -0.004   0.000   0.000   0.005   0.000
  0.000   0.000   0.000   0.000  -0.004   0.000   0.000   0.005
 total augmentation occupancy for first ion, spin component:           1
  2.000   0.000   0.000   0.000   0.000   0.000   0.000   0.000
  0.000   0.000   0.000   0.000   0.000   0.000   0.000   0.000
  0.000   0.000   0.667   0.000   0.000   0.000   0.000   0.000
  0.000   0.000   0.000   0.667   0.000   0.000   0.000   0.000
  0.000   0.000   0.000   0.000   0.667   0.000   0.000   0.000
  0.000   0.000   0.000   0.000   0.000   0.000   0.000   0.000
  0.000   0.000   0.000   0.000   0.000   0.000   0.000   0.000
  0.000   0.000   0.000   0.000   0.000   0.000   0.000   0.000


----------------------------------------- Iteration    1(   4)  ---------------------------------------


     EDDAV:  cpu time    2.00: real time    2.00
       DOS:  cpu time    0.00: real time    0.00
    --------------------------------------------
      LOOP:  cpu time    2.00: real time    2.01

 eigenvalue-minimisations  :   192
 total energy-change (2. order) :-0.3548742E-03  (-0.3548742E-03)
 number of electron      32.0000000 magnetization 
 augmentation part       32.0000000 magnetization 

 Free energy of the ion-electron system (eV)
  ---------------------------------------------------
  alpha Z        PSCENC =        12.68944982
  Ewald energy   TEWEN  =      -907.56703329
  -1/2 Hartree   DENC   =       -45.63622814
  -exchange  EXHF       =         0.00000000
  -V(xc)+E(xc)   XCENC  =       -76.79671461
  PAW double counting   =       265.93453375     -123.69690146
  entropy T*S    EENTRO =         0.00000000
  eigenvalues    EBANDS =        14.08080441
  atomic energy  EATOM  =       826.37398168
  ---------------------------------------------------
  free energy    TOTEN  =       -34.61810784 eV

  energy without entropy =      -34.61810784  energy(sigma->0) =      -34.61810784


--------------------------------------------------------------------------------------------------------




 average (electrostatic) potential at core
  the test charge radii are     0.9892
  (the norm of the test charge is              1.0000)
       1 -84.3486       2 -84.3524       3 -84.3551       4 -84.3522       5 -84.3517
       6 -84.3513       7 -84.3472       8 -84.3465
 
 
 
 E-fermi :   5.2019     XC(G=0):  -9.5533     alpha+bet :-11.7379


 k-point   1 :       0.0000    0.0000    0.0000
  band No.  band energies     occupation 
      1      -6.6372      2.00000
      2      -2.6462      2.00000
      3      -2.6378      2.00000
      4      -2.6332      2.00000
      5      -2.6290      2.00000
      6      -2.6284      2.00000
      7      -2.6137      2.00000
      8       2.3712      2.00000
      9       2.3748      2.00000
     10       2.3771      2.00000
     11       2.3781      2.00000
     12       2.3797      2.00000
     13       2.3850      2.00000
     14       5.0583      2.00000
     15       5.0681      2.00000
     16       5.0735      2.00000
     17       6.1447      0.00000
     18       6.1472      0.00000
     19       6.1509      0.00000
     20       6.1555      0.00000
     21       6.1574      0.00000
     22       6.1635      0.00000
     23       7.8457      0.00000
     24       7.8487      0.00000
     25       7.8542      0.00000
     26       8.1178      0.00000
     27      13.1837      0.00000
     28      13.1838      0.00000
     29      13.2694      0.00000
     30      15.0744      0.00000
     31      15.0830      0.00000
     32      15.0843      0.00000
     33      15.0844      0.00000
     34      15.0871      0.00000
     35      15.0955      0.00000
     36      16.2949      0.00000
     37      16.3045      0.00000
     38      16.3108      0.00000
     39      16.3131      0.00000
     40      16.3148      0.00000
     41      16.3245      0.00000
     42      16.7004      0.00000
     43      16.7033      0.00000
     44      16.7094      0.00000
     45      17.8709      0.00000
     46      17.8798      0.00000
     47      17.8855      0.00000
     48      17.8955      0.00000


--------------------------------------------------------------------------------------------------------


 soft charge-density along one line, spin component           1
         0         1         2         3         4         5         6         7         8         9
 total charge-density along one line
 
 pseudopotential strength for first ion, spin component:           1
 18.662   0.000   0.000   0.000   0.000   0.000   0.000   0.000
  0.000   0.006   0.000   0.000   0.000   0.000   0.000   0.000
  0.000   0.000   4.216   0.000   0.000  -0.004   0.000   0.000
  0.000   0.000   0.000   4.216   0.000   0.000  -0.004   0.000
  0.000   0.000   0.000   0.000   4.216   0.000   0.000  -0.004
  0.000   0.000  -0.004   0.000   0.000   0.005   0.000   0.000
  0.000   0.000   0.000  -0.004   0.000   0.000   0.005   0.000
  0.000   0.000   0.000   0.000  -0.004   0.000   0.000   0.005
 total augmentation occupancy for first ion, spin component:           1
  2.000   0.000   0.000   0.000   0.000   0.000   0.000   0.000
  0.000   0.000   0.000   0.000   0.000   0.000   0.000   0.000
  0.000   0.000   0.667   0.000   0.000   0.000   0.000   0.000
  0.000   0.000   0.000   0.667   0.000   0.000   0.000   0.000
  0.000   0.000   0.000   0.000   0.667   0.000   0.000   0.000
  0.000   0.000   0.000   0.000   0.000   0.000   0.000   0.000
  0.000   0.000   0.000   0.000   0.000   0.000   0.000   0.000
  0.000   0.000   0.000   0.000   0.000   0.000   0.000   0.000


----------------------------------------- Iteration    1(   5)  ---------------------------------------


     EDDAV:  cpu time    0.38: real time    0.38
       DOS:  cpu time    0.00: real time    0.00
    CHARGE:  cpu time    0.02: real time    0.02
    MIXING:  cpu time    0.00: real time    0.00
    --------------------------------------------
      LOOP:  cpu time    0.41: real time    0.41

 eigenvalue-minimisations  :    96
 total energy-change (2. order) :-0.3048626E-08  (-0.3048890E-08)
 number of electron      31.9999999 magnetization 
 augmentation part       -1.8053342 magnetization 

 Broyden mixing:
  rms(total) = 0.79307E+00    rms(broyden)= 0.79302E+00
  rms(prec ) = 0.15229E+01
  weight for this iteration     100.00

 Free energy of the ion-electron system (eV)
  ---------------------------------------------------
  alpha Z        PSCENC =        12.68944982
  Ewald energy   TEWEN  =      -907.56703329
  -1/2 Hartree   DENC   =       -45.63622814
  -exchange  EXHF       =         0.00000000
  -V(xc)+E(xc)   XCENC  =       -76.79671461
  PAW double counting   =       265.93453375     -123.69690146
  entropy T*S    EENTRO =         0.00000000
  eigenvalues    EBANDS =        14.08080441
  atomic energy  EATOM  =       826.37398168
  ---------------------------------------------------
  free energy    TOTEN  =       -34.61810785 eV

  energy without entropy =      -34.61810785  energy(sigma->0) =      -34.61810785


--------------------------------------------------------------------------------------------------------




 average (electrostatic) potential at core
  the test charge radii are     0.9892
  (the norm of the test charge is              1.0000)
       1 -84.3486       2 -84.3524       3 -84.3551       4 -84.3522       5 -84.3517
       6 -84.3513       7 -84.3472       8 -84.3465
 
 
 
 E-fermi :   5.1963     XC(G=0):  -9.5533     alpha+bet :-11.7379


 k-point   1 :       0.0000    0.0000    0.0000
  band No.  band energies     occupation 
      1      -6.6372      2.00000
      2      -2.6462      2.00000
      3      -2.6378      2.00000
      4      -2.6332      2.00000
      5      -2.6290      2.00000
      6      -2.6284      2.00000
      7      -2.6137      2.00000
      8       2.3712      2.00000
      9       2.3748      2.00000
     10       2.3771      2.00000
     11       2.3781      2.00000
     12       2.3797      2.00000
     13       2.3850      2.00000
     14       5.0583      2.00000
     15       5.0681      2.00000
     16       5.0735      2.00000
     17       6.1447      0.00000
     18       6.1472      0.00000
     19       6.1509      0.00000
     20       6.1555      0.00000
     21       6.1574      0.00000
     22       6.1635      0.00000
     23       7.8457      0.00000
     24       7.8487      0.00000
     25       7.8542      0.00000
     26       8.1178      0.00000
     27      13.1837      0.00000
     28      13.1838      0.00000
     29      13.2694      0.00000
     30      15.0743      0.00000
     31      15.0829      0.00000
     32      15.0843      0.00000
     33      15.0843      0.00000
     34      15.0870      0.00000
     35      15.0954      0.00000
     36      16.2946      0.00000
     37      16.3043      0.00000
     38      16.3105      0.00000
     39      16.3127      0.00000
     40      16.3144      0.00000
     41      16.3243      0.00000
     42      16.7001      0.00000
     43      16.7033      0.00000
     44      16.7093      0.00000
     45      17.8680      0.00000
     46      17.8750      0.00000
     47      17.8807      0.00000
     48      17.8839      0.00000


--------------------------------------------------------------------------------------------------------


 soft charge-density along one line, spin component           1
         0         1         2         3         4         5         6         7         8         9
 total charge-density along one line
 
 pseudopotential strength for first ion, spin component:           1
 18.662   0.000   0.000   0.000   0.000   0.000   0.000   0.000
  0.000   0.006   0.000   0.000   0.000   0.000   0.000   0.000
  0.000   0.000   4.216   0.000   0.000  -0.004   0.000   0.000
  0.000   0.000   0.000   4.216   0.000   0.000  -0.004   0.000
  0.000   0.000   0.000   0.000   4.216   0.000   0.000  -0.004
  0.000   0.000  -0.004   0.000   0.000   0.005   0.000   0.000
  0.000   0.000   0.000  -0.004   0.000   0.000   0.005   0.000
  0.000   0.000   0.000   0.000  -0.004   0.000   0.000   0.005
 total augmentation occupancy for first ion, spin component:           1
  1.380  -1.051   0.002   0.000  -0.001  -0.003   0.000   0.001
 -1.051   0.917  -0.002   0.001   0.001   0.003   0.000  -0.001
  0.002  -0.002   1.164  -0.001   0.000  -0.757   0.001   0.000
  0.000   0.001  -0.001   1.163   0.001   0.001  -0.757  -0.002
 -0.001   0.001   0.000   0.001   1.166   0.000  -0.003  -0.759
 -0.003   0.003  -0.757   0.001   0.000   0.569  -0.001   0.000
  0.000   0.000   0.001  -0.757  -0.003  -0.001   0.568   0.003
  0.001  -0.001   0.000  -0.002  -0.759   0.000   0.003   0.570


----------------------------------------- Iteration    1(   6)  ---------------------------------------


    POTLOK:  cpu time    0.02: real time    0.02
    SETDIJ:  cpu time    0.02: real time    0.02
    EDDIAG:  cpu time    0.03: real time    0.03
  RMM-DIIS:  cpu time    0.02: real time    0.03
    ORTHCH:  cpu time    0.01: real time    0.01
       DOS:  cpu time    0.00: real time    0.00
    CHARGE:  cpu time    0.02: real time    0.02
    MIXING:  cpu time    0.00: real time    0.00
    --------------------------------------------
      LOOP:  cpu time    0.12: real time    0.13

 eigenvalue-minimisations  :    96
 total energy-change (2. order) : 0.1001744E+01  (-0.3198061E-01)
 number of electron      31.9999999 magnetization 
 augmentation part       -1.7684060 magnetization 

 Broyden mixing:
  rms(total) = 0.47400E+00    rms(broyden)= 0.47400E+00
  rms(prec ) = 0.91068E+00
  weight for this iteration     100.00

 eigenvalues of (default mixing * dielectric matrix)
  average eigenvalue GAMMA=   2.4573
  2.4573

 Free energy of the ion-electron system (eV)
  ---------------------------------------------------
  alpha Z        PSCENC =        12.68944982
  Ewald energy   TEWEN  =      -907.56703329
  -1/2 Hartree   DENC   =       -54.68295625
  -exchange  EXHF       =         0.00000000
  -V(xc)+E(xc)   XCENC  =       -75.44938517
  PAW double counting   =       286.06092675     -144.35924276
  entropy T*S    EENTRO =         0.00000000
  eigenvalues    EBANDS =        23.31789558
  atomic energy  EATOM  =       826.37398168
  ---------------------------------------------------
  free energy    TOTEN  =       -33.61636365 eV

  energy without entropy =      -33.61636365  energy(sigma->0) =      -33.61636365


--------------------------------------------------------------------------------------------------------




 average (electrostatic) potential at core
  the test charge radii are     0.9892
  (the norm of the test charge is              1.0000)
       1 -83.8318       2 -83.8337       3 -83.8350       4 -83.8336       5 -83.8334
       6 -83.8332       7 -83.8311       8 -83.8308
 
 
 
 E-fermi :   5.5483     XC(G=0):  -9.4504     alpha+bet :-11.7379


 k-point   1 :       0.0000    0.0000    0.0000
  band No.  band energies     occupation 
      1      -6.3787      2.00000
      2      -2.3451      2.00000
      3      -2.3382      2.00000
      4      -2.3343      2.00000
      5      -2.3305      2.00000
      6      -2.3295      2.00000
      7      -2.3171      2.00000
      8       2.6331      2.00000
      9       2.6361      2.00000
     10       2.6382      2.00000
     11       2.6392      2.00000
     12       2.6406      2.00000
     13       2.6451      2.00000
     14       5.3919      2.00000
     15       5.4015      2.00000
     16       5.4067      2.00000
     17       6.2602      0.00000
     18       6.2623      0.00000
     19       6.2654      0.00000
     20       6.2695      0.00000
     21       6.2714      0.00000
     22       6.2769      0.00000
     23       8.0530      0.00000
     24       8.0560      0.00000
     25       8.0616      0.00000
     26       8.4862      0.00000
     27      13.3050      0.00000
     28      13.3568      0.00000
     29      13.3569      0.00000
     30      15.3714      0.00000
     31      15.3792      0.00000
     32      15.3805      0.00000
     33      15.3806      0.00000
     34      15.3832      0.00000
     35      15.3906      0.00000
     36      16.5318      0.00000
     37      16.5406      0.00000
     38      16.5463      0.00000
     39      16.5484      0.00000
     40      16.5498      0.00000
     41      16.5589      0.00000
     42      16.7447      0.00000
     43      16.7479      0.00000
     44      16.7539      0.00000
     45      18.1568      0.00000
     46      18.1647      0.00000
     47      18.1690      0.00000
     48      18.1729      0.00000


--------------------------------------------------------------------------------------------------------


 soft charge-density along one line, spin component           1
         0         1         2         3         4         5         6         7         8         9
 total charge-density along one line
 
 pseudopotential strength for first ion, spin component:           1
 18.635  -0.001   0.000   0.000   0.000   0.000   0.000   0.000
 -0.001   0.006   0.000   0.000   0.000   0.000   0.000   0.000
  0.000   0.000   4.221   0.000   0.000  -0.004   0.000   0.000
  0.000   0.000   0.000   4.221   0.000   0.000  -0.004   0.000
  0.000   0.000   0.000   0.000   4.221   0.000   0.000  -0.004
  0.000   0.000  -0.004   0.000   0.000   0.005   0.000   0.000
  0.000   0.000   0.000  -0.004   0.000   0.000   0.005   0.000
  0.000   0.000   0.000   0.000  -0.004   0.000   0.000   0.005
 total augmentation occupancy for first ion, spin component:           1
  1.351  -1.089   0.002   0.000  -0.001  -0.003   0.000   0.002
 -1.089   0.996  -0.001   0.001   0.000   0.003   0.000  -0.001
  0.002  -0.001   1.146  -0.001   0.000  -0.781   0.001   0.000
  0.000   0.001  -0.001   1.145   0.002   0.001  -0.780  -0.002
 -0.001   0.000   0.000   0.002   1.148   0.000  -0.003  -0.782
 -0.003   0.003  -0.781   0.001   0.000   0.607  -0.001   0.000
  0.000   0.000   0.001  -0.780  -0.003  -0.001   0.606   0.003
  0.002  -0.001   0.000  -0.002  -0.782   0.000   0.003   0.608


----------------------------------------- Iteration    1(   7)  ---------------------------------------


    POTLOK:  cpu time    0.02: real time    0.02
    SETDIJ:  cpu time    0.02: real time    0.02
    EDDIAG:  cpu time    0.02: real time    0.02
  RMM-DIIS:  cpu time    0.04: real time    0.04
    ORTHCH:  cpu time    0.01: real time    0.01
       DOS:  cpu time    0.00: real time    0.00
    CHARGE:  cpu time    0.02: real time    0.02
    MIXING:  cpu time    0.00: real time    0.00
    --------------------------------------------
      LOOP:  cpu time    0.13: real time    0.13

 eigenvalue-minimisations  :    96
 total energy-change (2. order) : 0.4246935E+00  (-0.7388803E-01)
 number of electron      31.9999999 magnetization 
 augmentation part       -1.7214481 magnetization 

 Broyden mixing:
  rms(total) = 0.46239E-01    rms(broyden)= 0.46229E-01
  rms(prec ) = 0.78434E-01
  weight for this iteration     100.00

 eigenvalues of (default mixing * dielectric matrix)
  average eigenvalue GAMMA=   2.5300
  2.5300  2.5300

 Free energy of the ion-electron system (eV)
  ---------------------------------------------------
  alpha Z        PSCENC =        12.68944982
  Ewald energy   TEWEN  =      -907.56703329
  -1/2 Hartree   DENC   =       -70.51479814
  -exchange  EXHF       =         0.00000000
  -V(xc)+E(xc)   XCENC  =       -73.00913466
  PAW double counting   =       313.72605455     -172.73810574
  entropy T*S    EENTRO =         0.00000000
  eigenvalues    EBANDS =        37.84791563
  atomic energy  EATOM  =       826.37398168
  ---------------------------------------------------
  free energy    TOTEN  =       -33.19167017 eV

  energy without entropy =      -33.19167017  energy(sigma->0) =      -33.19167017


--------------------------------------------------------------------------------------------------------




 average (electrostatic) potential at core
  the test charge radii are     0.9892
  (the norm of the test charge is              1.0000)
       1 -83.1448       2 -83.1457       3 -83.1469       4 -83.1464       5 -83.1455
       6 -83.1459       7 -83.1443       8 -83.1443
 
 
 
 E-fermi :   6.0960     XC(G=0):  -9.2018     alpha+bet :-11.7379


 k-point   1 :       0.0000    0.0000    0.0000
  band No.  band energies     occupation 
      1      -5.9621      2.00000
      2      -1.8766      2.00000
      3      -1.8713      2.00000
      4      -1.8678      2.00000
      5      -1.8644      2.00000
      6      -1.8630      2.00000
      7      -1.8528      2.00000
      8       3.0465      2.00000
      9       3.0488      2.00000
     10       3.0507      2.00000
     11       3.0519      2.00000
     12       3.0530      2.00000
     13       3.0569      2.00000
     14       5.9167      2.00000
     15       5.9261      2.00000
     16       5.9312      2.00000
     17       6.5196      0.00000
     18       6.5214      0.00000
     19       6.5238      0.00000
     20       6.5275      0.00000
     21       6.5294      0.00000
     22       6.5342      0.00000
     23       8.3781      0.00000
     24       8.3812      0.00000
     25       8.3869      0.00000
     26       9.0453      0.00000
     27      13.6014      0.00000
     28      13.6204      0.00000
     29      13.6205      0.00000
     30      15.8222      0.00000
     31      15.8292      0.00000
     32      15.8306      0.00000
     33      15.8307      0.00000
     34      15.8330      0.00000
     35      15.8396      0.00000
     36      16.8986      0.00000
     37      16.9022      0.00000
     38      16.9089      0.00000
     39      16.9530      0.00000
     40      16.9606      0.00000
     41      16.9658      0.00000
     42      16.9672      0.00000
     43      16.9687      0.00000
     44      16.9768      0.00000
     45      18.6556      0.00000
     46      18.6667      0.00000
     47      18.6684      0.00000
     48      18.6734      0.00000


--------------------------------------------------------------------------------------------------------


 soft charge-density along one line, spin component           1
         0         1         2         3         4         5         6         7         8         9
 total charge-density along one line
 
 pseudopotential strength for first ion, spin component:           1
 18.596  -0.001   0.000   0.000   0.000   0.000   0.000   0.000
 -0.001   0.006   0.000   0.000   0.000   0.000   0.000   0.000
  0.000   0.000   4.227   0.000   0.000  -0.005   0.000   0.000
  0.000   0.000   0.000   4.227   0.000   0.000  -0.005   0.000
  0.000   0.000   0.000   0.000   4.227   0.000   0.000  -0.005
  0.000   0.000  -0.005   0.000   0.000   0.005   0.000   0.000
  0.000   0.000   0.000  -0.005   0.000   0.000   0.005   0.000
  0.000   0.000   0.000   0.000  -0.005   0.000   0.000   0.005
 total augmentation occupancy for first ion, spin component:           1
  1.314  -1.111   0.002   0.000  -0.001  -0.004   0.000   0.002
 -1.111   1.057  -0.001   0.000   0.000   0.003   0.000  -0.001
  0.002  -0.001   1.122  -0.001   0.000  -0.804   0.001   0.000
  0.000   0.000  -0.001   1.121   0.002   0.001  -0.803  -0.003
 -0.001   0.000   0.000   0.002   1.123   0.000  -0.003  -0.805
 -0.004   0.003  -0.804   0.001   0.000   0.651  -0.001   0.000
  0.000   0.000   0.001  -0.803  -0.003  -0.001   0.650   0.003
  0.002  -0.001   0.000  -0.003  -0.805   0.000   0.003   0.652


----------------------------------------- Iteration    1(   8)  ---------------------------------------


    POTLOK:  cpu time    0.02: real time    0.02
    SETDIJ:  cpu time    0.02: real time    0.02
    EDDIAG:  cpu time    0.02: real time    0.02
  RMM-DIIS:  cpu time    0.03: real time    0.03
    ORTHCH:  cpu time    0.00: real time    0.01
       DOS:  cpu time    0.00: real time    0.00
    CHARGE:  cpu time    0.02: real time    0.02
    MIXING:  cpu time    0.00: real time    0.00
    --------------------------------------------
      LOOP:  cpu time    0.12: real time    0.13

 eigenvalue-minimisations  :    96
 total energy-change (2. order) :-0.3198834E-01  (-0.2161641E-02)
 number of electron      31.9999999 magnetization 
 augmentation part       -1.7275386 magnetization 

 Broyden mixing:
  rms(total) = 0.74755E-02    rms(broyden)= 0.74750E-02
  rms(prec ) = 0.17929E-01
  weight for this iteration     100.00

 eigenvalues of (default mixing * dielectric matrix)
  average eigenvalue GAMMA=   2.1229
  1.2789  2.8671  2.2227

 Free energy of the ion-electron system (eV)
  ---------------------------------------------------
  alpha Z        PSCENC =        12.68944982
  Ewald energy   TEWEN  =      -907.56703329
  -1/2 Hartree   DENC   =       -70.40039492
  -exchange  EXHF       =         0.00000000
  -V(xc)+E(xc)   XCENC  =       -72.96550339
  PAW double counting   =       307.36525248     -166.19253674
  entropy T*S    EENTRO =         0.00000000
  eigenvalues    EBANDS =        37.47312587
  atomic energy  EATOM  =       826.37398168
  ---------------------------------------------------
  free energy    TOTEN  =       -33.22365851 eV

  energy without entropy =      -33.22365851  energy(sigma->0) =      -33.22365851


--------------------------------------------------------------------------------------------------------




 average (electrostatic) potential at core
  the test charge radii are     0.9892
  (the norm of the test charge is              1.0000)
       1 -83.2468       2 -83.2496       3 -83.2518       4 -83.2498       5 -83.2490
       6 -83.2490       7 -83.2457       8 -83.2453
 
 
 
 E-fermi :   6.0347     XC(G=0):  -9.1504     alpha+bet :-11.7379


 k-point   1 :       0.0000    0.0000    0.0000
  band No.  band energies     occupation 
      1      -5.9631      2.00000
      2      -1.8893      2.00000
      3      -1.8831      2.00000
      4      -1.8794      2.00000
      5      -1.8757      2.00000
      6      -1.8746      2.00000
      7      -1.8630      2.00000
      8       3.0346      2.00000
      9       3.0371      2.00000
     10       3.0393      2.00000
     11       3.0405      2.00000
     12       3.0416      2.00000
     13       3.0458      2.00000
     14       5.9006      2.00000
     15       5.9101      2.00000
     16       5.9151      2.00000
     17       6.5701      0.00000
     18       6.5721      0.00000
     19       6.5746      0.00000
     20       6.5786      0.00000
     21       6.5804      0.00000
     22       6.5856      0.00000
     23       8.3674      0.00000
     24       8.3705      0.00000
     25       8.3762      0.00000
     26       9.0382      0.00000
     27      13.6064      0.00000
     28      13.6065      0.00000
     29      13.7785      0.00000
     30      15.8072      0.00000
     31      15.8146      0.00000
     32      15.8160      0.00000
     33      15.8161      0.00000
     34      15.8182      0.00000
     35      15.8255      0.00000
     36      16.9350      0.00000
     37      16.9388      0.00000
     38      16.9460      0.00000
     39      16.9593      0.00000
     40      16.9671      0.00000
     41      16.9726      0.00000
     42      16.9737      0.00000
     43      16.9754      0.00000
     44      16.9838      0.00000
     45      18.6929      0.00000
     46      18.7044      0.00000
     47      18.7066      0.00000
     48      18.7111      0.00000


--------------------------------------------------------------------------------------------------------


 soft charge-density along one line, spin component           1
         0         1         2         3         4         5         6         7         8         9
 total charge-density along one line
 
 pseudopotential strength for first ion, spin component:           1
 18.599  -0.001   0.000   0.000   0.000   0.000   0.000   0.000
 -0.001   0.006   0.000   0.000   0.000   0.000   0.000   0.000
  0.000   0.000   4.224   0.000   0.000  -0.005   0.000   0.000
  0.000   0.000   0.000   4.224   0.000   0.000  -0.005   0.000
  0.000   0.000   0.000   0.000   4.224   0.000   0.000  -0.005
  0.000   0.000  -0.005   0.000   0.000   0.005   0.000   0.000
  0.000   0.000   0.000  -0.005   0.000   0.000   0.005   0.000
  0.000   0.000   0.000   0.000  -0.005   0.000   0.000   0.005
 total augmentation occupancy for first ion, spin component:           1
  1.320  -1.091   0.002   0.000  -0.001  -0.003   0.000   0.001
 -1.091   1.020  -0.001   0.000   0.000   0.003   0.000  -0.001
  0.002  -0.001   1.123  -0.001   0.000  -0.800   0.001   0.000
  0.000   0.000  -0.001   1.122   0.002   0.001  -0.799  -0.002
 -0.001   0.000   0.000   0.002   1.124   0.000  -0.003  -0.801
 -0.003   0.003  -0.800   0.001   0.000   0.646  -0.001   0.000
  0.000   0.000   0.001  -0.799  -0.003  -0.001   0.645   0.003
  0.001  -0.001   0.000  -0.002  -0.801   0.000   0.003   0.647


----------------------------------------- Iteration    1(   9)  ---------------------------------------


    POTLOK:  cpu time    0.02: real time    0.02
    SETDIJ:  cpu time    0.02: real time    0.02
    EDDIAG:  cpu time    0.02: real time    0.02
  RMM-DIIS:  cpu time    0.04: real time    0.04
    ORTHCH:  cpu time    0.01: real time    0.01
       DOS:  cpu time    0.00: real time    0.00
    CHARGE:  cpu time    0.02: real time    0.02
    MIXING:  cpu time    0.00: real time    0.00
    --------------------------------------------
      LOOP:  cpu time    0.12: real time    0.13

 eigenvalue-minimisations  :   106
 total energy-change (2. order) :-0.1135351E-02  (-0.1268165E-03)
 number of electron      31.9999999 magnetization 
 augmentation part       -1.7274573 magnetization 

 Broyden mixing:
  rms(total) = 0.41751E-02    rms(broyden)= 0.41750E-02
  rms(prec ) = 0.68335E-02
  weight for this iteration     100.00

 eigenvalues of (default mixing * dielectric matrix)
  average eigenvalue GAMMA=   2.3022
  0.9889  3.2458  2.6870  2.2870

 Free energy of the ion-electron system (eV)
  ---------------------------------------------------
  alpha Z        PSCENC =        12.68944982
  Ewald energy   TEWEN  =      -907.56703329
  -1/2 Hartree   DENC   =       -70.79749035
  -exchange  EXHF       =         0.00000000
  -V(xc)+E(xc)   XCENC  =       -72.90620168
  PAW double counting   =       307.71621774     -166.55391303
  entropy T*S    EENTRO =         0.00000000
  eigenvalues    EBANDS =        37.82019525
  atomic energy  EATOM  =       826.37398168
  ---------------------------------------------------
  free energy    TOTEN  =       -33.22479386 eV

  energy without entropy =      -33.22479386  energy(sigma->0) =      -33.22479386


--------------------------------------------------------------------------------------------------------




 average (electrostatic) potential at core
  the test charge radii are     0.9892
  (the norm of the test charge is              1.0000)
       1 -83.2329       2 -83.2352       3 -83.2366       4 -83.2350       5 -83.2347
       6 -83.2345       7 -83.2321       8 -83.2317
 
 
 
 E-fermi :   6.0494     XC(G=0):  -9.1362     alpha+bet :-11.7379


 k-point   1 :       0.0000    0.0000    0.0000
  band No.  band energies     occupation 
      1      -5.9519      2.00000
      2      -1.8777      2.00000
      3      -1.8718      2.00000
      4      -1.8683      2.00000
      5      -1.8646      2.00000
      6      -1.8634      2.00000
      7      -1.8523      2.00000
      8       3.0446      2.00000
      9       3.0470      2.00000
     10       3.0492      2.00000
     11       3.0503      2.00000
     12       3.0514      2.00000
     13       3.0555      2.00000
     14       5.9127      2.00000
     15       5.9221      2.00000
     16       5.9272      2.00000
     17       6.5841      0.00000
     18       6.5861      0.00000
     19       6.5887      0.00000
     20       6.5927      0.00000
     21       6.5945      0.00000
     22       6.5997      0.00000
     23       8.3751      0.00000
     24       8.3782      0.00000
     25       8.3838      0.00000
     26       9.0527      0.00000
     27      13.6117      0.00000
     28      13.6117      0.00000
     29      13.8108      0.00000
     30      15.8178      0.00000
     31      15.8251      0.00000
     32      15.8265      0.00000
     33      15.8266      0.00000
     34      15.8288      0.00000
     35      15.8358      0.00000
     36      16.9451      0.00000
     37      16.9489      0.00000
     38      16.9560      0.00000
     39      16.9715      0.00000
     40      16.9793      0.00000
     41      16.9847      0.00000
     42      16.9858      0.00000
     43      16.9874      0.00000
     44      16.9957      0.00000
     45      18.7106      0.00000
     46      18.7225      0.00000
     47      18.7251      0.00000
     48      18.7295      0.00000


--------------------------------------------------------------------------------------------------------


 soft charge-density along one line, spin component           1
         0         1         2         3         4         5         6         7         8         9
 total charge-density along one line
 
 pseudopotential strength for first ion, spin component:           1
 18.598  -0.001   0.000   0.000   0.000   0.000   0.000   0.000
 -0.001   0.006   0.000   0.000   0.000   0.000   0.000   0.000
  0.000   0.000   4.224   0.000   0.000  -0.005   0.000   0.000
  0.000   0.000   0.000   4.224   0.000   0.000  -0.005   0.000
  0.000   0.000   0.000   0.000   4.224   0.000   0.000  -0.005
  0.000   0.000  -0.005   0.000   0.000   0.005   0.000   0.000
  0.000   0.000   0.000  -0.005   0.000   0.000   0.005   0.000
  0.000   0.000   0.000   0.000  -0.005   0.000   0.000   0.005
 total augmentation occupancy for first ion, spin component:           1
  1.320  -1.086   0.002   0.000  -0.001  -0.003   0.000   0.002
 -1.086   1.011  -0.001   0.000   0.000   0.003   0.000  -0.001
  0.002  -0.001   1.123  -0.001   0.000  -0.800   0.001   0.000
  0.000   0.000  -0.001   1.121   0.002   0.001  -0.799  -0.003
 -0.001   0.000   0.000   0.002   1.124   0.000  -0.003  -0.801
 -0.003   0.003  -0.800   0.001   0.000   0.646  -0.001   0.000
  0.000   0.000   0.001  -0.799  -0.003  -0.001   0.645   0.003
  0.002  -0.001   0.000  -0.003  -0.801   0.000   0.003   0.647


----------------------------------------- Iteration    1(  10)  ---------------------------------------


    POTLOK:  cpu time    0.02: real time    0.02
    SETDIJ:  cpu time    0.02: real time    0.02
    EDDIAG:  cpu time    0.02: real time    0.02
  RMM-DIIS:  cpu time    0.04: real time    0.04
    ORTHCH:  cpu time    0.00: real time    0.01
       DOS:  cpu time    0.00: real time    0.00
    CHARGE:  cpu time    0.02: real time    0.02
    MIXING:  cpu time    0.00: real time    0.00
    --------------------------------------------
      LOOP:  cpu time    0.14: real time    0.14

 eigenvalue-minimisations  :   104
 total energy-change (2. order) :-0.1829000E-03  (-0.2390501E-04)
 number of electron      31.9999999 magnetization 
 augmentation part       -1.7273373 magnetization 

 Broyden mixing:
  rms(total) = 0.45046E-03    rms(broyden)= 0.45002E-03
  rms(prec ) = 0.90462E-03
  weight for this iteration     100.00

 eigenvalues of (default mixing * dielectric matrix)
  average eigenvalue GAMMA=   2.0377
  3.0955  2.6313  2.1677  0.9762  1.3179

 Free energy of the ion-electron system (eV)
  ---------------------------------------------------
  alpha Z        PSCENC =        12.68944982
  Ewald energy   TEWEN  =      -907.56703329
  -1/2 Hartree   DENC   =       -70.84826054
  -exchange  EXHF       =         0.00000000
  -V(xc)+E(xc)   XCENC  =       -72.90945252
  PAW double counting   =       307.80401686     -166.64788758
  entropy T*S    EENTRO =         0.00000000
  eigenvalues    EBANDS =        37.88020882
  atomic energy  EATOM  =       826.37398168
  ---------------------------------------------------
  free energy    TOTEN  =       -33.22497676 eV

  energy without entropy =      -33.22497676  energy(sigma->0) =      -33.22497676


--------------------------------------------------------------------------------------------------------




 average (electrostatic) potential at core
  the test charge radii are     0.9892
  (the norm of the test charge is              1.0000)
       1 -83.2247       2 -83.2264       3 -83.2274       4 -83.2262       5 -83.2261
       6 -83.2258       7 -83.2241       8 -83.2238
 
 
 
 E-fermi :   6.0540     XC(G=0):  -9.1307     alpha+bet :-11.7379


 k-point   1 :       0.0000    0.0000    0.0000
  band No.  band energies     occupation 
      1      -5.9495      2.00000
      2      -1.8755      2.00000
      3      -1.8697      2.00000
      4      -1.8663      2.00000
      5      -1.8627      2.00000
      6      -1.8615      2.00000
      7      -1.8506      2.00000
      8       3.0463      2.00000
      9       3.0487      2.00000
     10       3.0508      2.00000
     11       3.0519      2.00000
     12       3.0530      2.00000
     13       3.0570      2.00000
     14       5.9148      2.00000
     15       5.9242      2.00000
     16       5.9292      2.00000
     17       6.5893      0.00000
     18       6.5914      0.00000
     19       6.5940      0.00000
     20       6.5979      0.00000
     21       6.5998      0.00000
     22       6.6049      0.00000
     23       8.3760      0.00000
     24       8.3791      0.00000
     25       8.3847      0.00000
     26       9.0563      0.00000
     27      13.6117      0.00000
     28      13.6117      0.00000
     29      13.8265      0.00000
     30      15.8197      0.00000
     31      15.8269      0.00000
     32      15.8282      0.00000
     33      15.8283      0.00000
     34      15.8306      0.00000
     35      15.8375      0.00000
     36      16.9491      0.00000
     37      16.9528      0.00000
     38      16.9600      0.00000
     39      16.9743      0.00000
     40      16.9819      0.00000
     41      16.9873      0.00000
     42      16.9884      0.00000
     43      16.9900      0.00000
     44      16.9982      0.00000
     45      18.7178      0.00000
     46      18.7296      0.00000
     47      18.7317      0.00000
     48      18.7363      0.00000


--------------------------------------------------------------------------------------------------------


 soft charge-density along one line, spin component           1
         0         1         2         3         4         5         6         7         8         9
 total charge-density along one line
 
 pseudopotential strength for first ion, spin component:           1
 18.597  -0.001   0.000   0.000   0.000   0.000   0.000   0.000
 -0.001   0.006   0.000   0.000   0.000   0.000   0.000   0.000
  0.000   0.000   4.224   0.000   0.000  -0.005   0.000   0.000
  0.000   0.000   0.000   4.224   0.000   0.000  -0.005   0.000
  0.000   0.000   0.000   0.000   4.224   0.000   0.000  -0.005
  0.000   0.000  -0.005   0.000   0.000   0.005   0.000   0.000
  0.000   0.000   0.000  -0.005   0.000   0.000   0.005   0.000
  0.000   0.000   0.000   0.000  -0.005   0.000   0.000   0.005
 total augmentation occupancy for first ion, spin component:           1
  1.320  -1.086   0.002   0.000  -0.001  -0.003   0.000   0.001
 -1.086   1.011  -0.001   0.000   0.000   0.003   0.000  -0.001
  0.002  -0.001   1.122  -0.001   0.000  -0.800   0.001   0.000
  0.000   0.000  -0.001   1.121   0.002   0.001  -0.800  -0.003
 -0.001   0.000   0.000   0.002   1.124   0.000  -0.003  -0.802
 -0.003   0.003  -0.800   0.001   0.000   0.647  -0.001   0.000
  0.000   0.000   0.001  -0.800  -0.003  -0.001   0.646   0.003
  0.001  -0.001   0.000  -0.003  -0.802   0.000   0.003   0.648


----------------------------------------- Iteration    1(  11)  ---------------------------------------


    POTLOK:  cpu time    0.02: real time    0.02
    SETDIJ:  cpu time    0.02: real time    0.02
    EDDIAG:  cpu time    0.02: real time    0.02
  RMM-DIIS:  cpu time    0.05: real time    0.05
    ORTHCH:  cpu time    0.01: real time    0.01
       DOS:  cpu time    0.00: real time    0.00
    CHARGE:  cpu time    0.02: real time    0.02
    MIXING:  cpu time    0.00: real time    0.00
    --------------------------------------------
      LOOP:  cpu time    0.13: real time    0.14

 eigenvalue-minimisations  :   115
 total energy-change (2. order) : 0.4401371E-05  (-0.3234077E-06)
 number of electron      31.9999999 magnetization 
 augmentation part       -1.7274360 magnetization 

 Broyden mixing:
  rms(total) = 0.15734E-03    rms(broyden)= 0.15729E-03
  rms(prec ) = 0.30844E-03
  weight for this iteration     100.00

 eigenvalues of (default mixing * dielectric matrix)
  average eigenvalue GAMMA=   1.9638
  3.2087  2.7040  2.1588  1.7651  0.9731  0.9731

 Free energy of the ion-electron system (eV)
  ---------------------------------------------------
  alpha Z        PSCENC =        12.68944982
  Ewald energy   TEWEN  =      -907.56703329
  -1/2 Hartree   DENC   =       -70.82891134
  -exchange  EXHF       =         0.00000000
  -V(xc)+E(xc)   XCENC  =       -72.91077974
  PAW double counting   =       307.73479149     -166.57597059
  entropy T*S    EENTRO =         0.00000000
  eigenvalues    EBANDS =        37.85949963
  atomic energy  EATOM  =       826.37398168
  ---------------------------------------------------
  free energy    TOTEN  =       -33.22497236 eV

  energy without entropy =      -33.22497236  energy(sigma->0) =      -33.22497236


--------------------------------------------------------------------------------------------------------




 average (electrostatic) potential at core
  the test charge radii are     0.9892
  (the norm of the test charge is              1.0000)
       1 -83.2266       2 -83.2287       3 -83.2300       4 -83.2285       5 -83.2283
       6 -83.2280       7 -83.2259       8 -83.2255
 
 
 
 E-fermi :   6.0536     XC(G=0):  -9.1314     alpha+bet :-11.7379


 k-point   1 :       0.0000    0.0000    0.0000
  band No.  band energies     occupation 
      1      -5.9501      2.00000
      2      -1.8763      2.00000
      3      -1.8705      2.00000
      4      -1.8669      2.00000
      5      -1.8633      2.00000
      6      -1.8622      2.00000
      7      -1.8511      2.00000
      8       3.0457      2.00000
      9       3.0481      2.00000
     10       3.0502      2.00000
     11       3.0513      2.00000
     12       3.0524      2.00000
     13       3.0565      2.00000
     14       5.9141      2.00000
     15       5.9234      2.00000
     16       5.9285      2.00000
     17       6.5887      0.00000
     18       6.5907      0.00000
     19       6.5933      0.00000
     20       6.5972      0.00000
     21       6.5991      0.00000
     22       6.6043      0.00000
     23       8.3756      0.00000
     24       8.3786      0.00000
     25       8.3843      0.00000
     26       9.0554      0.00000
     27      13.6114      0.00000
     28      13.6115      0.00000
     29      13.8250      0.00000
     30      15.8189      0.00000
     31      15.8262      0.00000
     32      15.8276      0.00000
     33      15.8277      0.00000
     34      15.8299      0.00000
     35      15.8369      0.00000
     36      16.9486      0.00000
     37      16.9523      0.00000
     38      16.9595      0.00000
     39      16.9736      0.00000
     40      16.9813      0.00000
     41      16.9867      0.00000
     42      16.9878      0.00000
     43      16.9894      0.00000
     44      16.9977      0.00000
     45      18.7184      0.00000
     46      18.7298      0.00000
     47      18.7315      0.00000
     48      18.7361      0.00000


--------------------------------------------------------------------------------------------------------


 soft charge-density along one line, spin component           1
         0         1         2         3         4         5         6         7         8         9
 total charge-density along one line
 
 pseudopotential strength for first ion, spin component:           1
 18.597  -0.001   0.000   0.000   0.000   0.000   0.000   0.000
 -0.001   0.006   0.000   0.000   0.000   0.000   0.000   0.000
  0.000   0.000   4.224   0.000   0.000  -0.005   0.000   0.000
  0.000   0.000   0.000   4.224   0.000   0.000  -0.005   0.000
  0.000   0.000   0.000   0.000   4.224   0.000   0.000  -0.005
  0.000   0.000  -0.005   0.000   0.000   0.005   0.000   0.000
  0.000   0.000   0.000  -0.005   0.000   0.000   0.005   0.000
  0.000   0.000   0.000   0.000  -0.005   0.000   0.000   0.005
 total augmentation occupancy for first ion, spin component:           1
  1.320  -1.086   0.002   0.000  -0.001  -0.003   0.000   0.002
 -1.086   1.010  -0.001   0.000   0.000   0.003   0.000  -0.001
  0.002  -0.001   1.122  -0.001   0.000  -0.800   0.001   0.000
  0.000   0.000  -0.001   1.121   0.002   0.001  -0.800  -0.003
 -0.001   0.000   0.000   0.002   1.124   0.000  -0.003  -0.802
 -0.003   0.003  -0.800   0.001   0.000   0.647  -0.001   0.000
  0.000   0.000   0.001  -0.800  -0.003  -0.001   0.646   0.003
  0.002  -0.001   0.000  -0.003  -0.802   0.000   0.003   0.648


----------------------------------------- Iteration    1(  12)  ---------------------------------------


    POTLOK:  cpu time    0.02: real time    0.02
    SETDIJ:  cpu time    0.03: real time    0.03
    EDDIAG:  cpu time    0.03: real time    0.03
  RMM-DIIS:  cpu time    0.05: real time    0.05
    ORTHCH:  cpu time    0.00: real time    0.01
       DOS:  cpu time    0.00: real time    0.00
    CHARGE:  cpu time    0.02: real time    0.02
    MIXING:  cpu time    0.00: real time    0.00
    --------------------------------------------
      LOOP:  cpu time    0.16: real time    0.17

 eigenvalue-minimisations  :   125
 total energy-change (2. order) :-0.6566399E-06  (-0.5486990E-07)
 number of electron      31.9999999 magnetization 
 augmentation part       -1.7274236 magnetization 

 Broyden mixing:
  rms(total) = 0.60912E-04    rms(broyden)= 0.60882E-04
  rms(prec ) = 0.86453E-04
  weight for this iteration     100.00

 eigenvalues of (default mixing * dielectric matrix)
  average eigenvalue GAMMA=   2.0045
  3.2092  2.7421  2.4901  2.0673  1.5659  0.9941  0.9628

 Free energy of the ion-electron system (eV)
  ---------------------------------------------------
  alpha Z        PSCENC =        12.68944982
  Ewald energy   TEWEN  =      -907.56703329
  -1/2 Hartree   DENC   =       -70.83330759
  -exchange  EXHF       =         0.00000000
  -V(xc)+E(xc)   XCENC  =       -72.91071077
  PAW double counting   =       307.74231727     -166.58369801
  entropy T*S    EENTRO =         0.00000000
  eigenvalues    EBANDS =        37.86402788
  atomic energy  EATOM  =       826.37398168
  ---------------------------------------------------
  free energy    TOTEN  =       -33.22497301 eV

  energy without entropy =      -33.22497301  energy(sigma->0) =      -33.22497301


--------------------------------------------------------------------------------------------------------




 average (electrostatic) potential at core
  the test charge radii are     0.9892
  (the norm of the test charge is              1.0000)
       1 -83.2261       2 -83.2282       3 -83.2296       4 -83.2281       5 -83.2278
       6 -83.2276       7 -83.2254       8 -83.2250
 
 
 
 E-fermi :   6.0542     XC(G=0):  -9.1311     alpha+bet :-11.7379


 k-point   1 :       0.0000    0.0000    0.0000
  band No.  band energies     occupation 
      1      -5.9500      2.00000
      2      -1.8762      2.00000
      3      -1.8703      2.00000
      4      -1.8668      2.00000
      5      -1.8631      2.00000
      6      -1.8620      2.00000
      7      -1.8509      2.00000
      8       3.0458      2.00000
      9       3.0482      2.00000
     10       3.0503      2.00000
     11       3.0514      2.00000
     12       3.0526      2.00000
[...]
    MIXING:  cpu time    0.00: real time    0.00
    --------------------------------------------
      LOOP:  cpu time    0.15: real time    0.15

 Broyden mixing:
  rms(total) = 0.71444E-02    rms(broyden)= 0.71440E-02
  rms(prec ) = 0.12270E-01
  weight for this iteration     100.00

 eigenvalues of (default mixing * dielectric matrix)
  average eigenvalue GAMMA=   2.0725
  3.0269  2.4837  1.1218  1.6576

 Free energy of the ion-electron system (eV)
  ---------------------------------------------------
  -1/2 Hartree   DENC   =        -4.61426648
  -V(xc)+E(xc)   XCENC  =         0.94946761
  PAW double counting   =         3.10241587       -3.15181201
  entropy T*S    EENTRO =         0.00000000
  eigenvalues    EBANDS =       -24.52588906
  ---------------------------------------------------
  free energy    TOTEN  =       -28.24008407 eV

  energy without entropy =      -28.24008407


----------------------------------------- Iteration    3(   7)  ---------------------------------------


   POT+DIJ:  cpu time    0.07: real time    0.07
    HAMIL1:  cpu time    0.01: real time    0.01
    LRDIAG:  cpu time    0.01: real time    0.01
    LRDIIS:  cpu time    0.02: real time    0.02
    LRDIAG:  cpu time    0.01: real time    0.01
    MIXING:  cpu time    0.00: real time    0.00
    --------------------------------------------
      LOOP:  cpu time    0.15: real time    0.15

 Broyden mixing:
  rms(total) = 0.53980E-03    rms(broyden)= 0.53889E-03
  rms(prec ) = 0.10163E-02
  weight for this iteration     100.00

 eigenvalues of (default mixing * dielectric matrix)
  average eigenvalue GAMMA=   1.9617
  3.0932  2.4111  1.1150  1.6716  1.5174

 Free energy of the ion-electron system (eV)
  ---------------------------------------------------
  -1/2 Hartree   DENC   =        -4.62659416
  -V(xc)+E(xc)   XCENC  =         0.95731098
  PAW double counting   =         3.06494033       -3.11377375
  entropy T*S    EENTRO =         0.00000000
  eigenvalues    EBANDS =       -24.56241606
  ---------------------------------------------------
  free energy    TOTEN  =       -28.28053265 eV

  energy without entropy =      -28.28053265


----------------------------------------- Iteration    3(   8)  ---------------------------------------


   POT+DIJ:  cpu time    0.07: real time    0.07
    HAMIL1:  cpu time    0.01: real time    0.01
    LRDIAG:  cpu time    0.01: real time    0.01
    LRDIIS:  cpu time    0.02: real time    0.02
    LRDIAG:  cpu time    0.01: real time    0.01
    MIXING:  cpu time    0.00: real time    0.00
    --------------------------------------------
      LOOP:  cpu time    0.15: real time    0.15

 Broyden mixing:
  rms(total) = 0.27791E-03    rms(broyden)= 0.27784E-03
  rms(prec ) = 0.41072E-03
  weight for this iteration     100.00

 eigenvalues of (default mixing * dielectric matrix)
  average eigenvalue GAMMA=   1.9079
  3.0889  2.4601  2.0723  1.6640  1.1261  1.0364

 Free energy of the ion-electron system (eV)
  ---------------------------------------------------
  -1/2 Hartree   DENC   =        -4.63003002
  -V(xc)+E(xc)   XCENC  =         0.95822397
  PAW double counting   =         3.06870292       -3.11759953
  entropy T*S    EENTRO =         0.00000000
  eigenvalues    EBANDS =       -24.56349400
  ---------------------------------------------------
  free energy    TOTEN  =       -28.28419667 eV

  energy without entropy =      -28.28419667


----------------------------------------- Iteration    3(   9)  ---------------------------------------


   POT+DIJ:  cpu time    0.07: real time    0.07
    HAMIL1:  cpu time    0.00: real time    0.00
    LRDIAG:  cpu time    0.01: real time    0.01
    LRDIIS:  cpu time    0.02: real time    0.02
    LRDIAG:  cpu time    0.01: real time    0.01
    MIXING:  cpu time    0.00: real time    0.00
    --------------------------------------------
      LOOP:  cpu time    0.15: real time    0.15

 Broyden mixing:
  rms(total) = 0.10220E-03    rms(broyden)= 0.10218E-03
  rms(prec ) = 0.15534E-03
  weight for this iteration     100.00

 eigenvalues of (default mixing * dielectric matrix)
  average eigenvalue GAMMA=   1.8932
  3.1734  2.7340  2.4011  1.6759  1.2709  1.1025  0.8946

 Free energy of the ion-electron system (eV)
  ---------------------------------------------------
  -1/2 Hartree   DENC   =        -4.62973054
  -V(xc)+E(xc)   XCENC  =         0.95816454
  PAW double counting   =         3.07086800       -3.11980197
  entropy T*S    EENTRO =         0.00000000
  eigenvalues    EBANDS =       -24.56375154
  ---------------------------------------------------
  free energy    TOTEN  =       -28.28425151 eV

  energy without entropy =      -28.28425151


----------------------------------------- Iteration    3(  10)  ---------------------------------------


   POT+DIJ:  cpu time    0.07: real time    0.08
    HAMIL1:  cpu time    0.00: real time    0.01
    LRDIAG:  cpu time    0.02: real time    0.02
    LRDIIS:  cpu time    0.02: real time    0.02
    LRDIAG:  cpu time    0.01: real time    0.01
    MIXING:  cpu time    0.00: real time    0.00
    --------------------------------------------
      LOOP:  cpu time    0.16: real time    0.16

 Broyden mixing:
  rms(total) = 0.15734E-04    rms(broyden)= 0.15723E-04
  rms(prec ) = 0.25629E-04
  weight for this iteration     100.00

 eigenvalues of (default mixing * dielectric matrix)
  average eigenvalue GAMMA=   1.8343
  3.1940  2.7682  2.4446  1.6730  1.4392  0.9977  1.0383  1.1194

 Free energy of the ion-electron system (eV)
  ---------------------------------------------------
  -1/2 Hartree   DENC   =        -4.62980654
  -V(xc)+E(xc)   XCENC  =         0.95820537
  PAW double counting   =         3.07196343       -3.12091652
  entropy T*S    EENTRO =         0.00000000
  eigenvalues    EBANDS =       -24.56400790
  ---------------------------------------------------
  free energy    TOTEN  =       -28.28456216 eV

  energy without entropy =      -28.28456216


----------------------------------------- Iteration    3(  11)  ---------------------------------------


   POT+DIJ:  cpu time    0.07: real time    0.07
    HAMIL1:  cpu time    0.00: real time    0.01
    LRDIAG:  cpu time    0.01: real time    0.01
    LRDIIS:  cpu time    0.03: real time    0.03
    LRDIAG:  cpu time    0.01: real time    0.01
    MIXING:  cpu time    0.00: real time    0.00
    --------------------------------------------
      LOOP:  cpu time    0.15: real time    0.16

 Broyden mixing:
  rms(total) = 0.38444E-05    rms(broyden)= 0.38422E-05
  rms(prec ) = 0.56004E-05
  weight for this iteration     100.00

 eigenvalues of (default mixing * dielectric matrix)
  average eigenvalue GAMMA=   1.8802
  3.2024  2.7929  2.4508  2.2690  1.6740  1.4216  1.1105  1.0001  1.0001

 Free energy of the ion-electron system (eV)
  ---------------------------------------------------
  -1/2 Hartree   DENC   =        -4.62981444
  -V(xc)+E(xc)   XCENC  =         0.95820237
  PAW double counting   =         3.07206223       -3.12101697
  entropy T*S    EENTRO =         0.00000000
  eigenvalues    EBANDS =       -24.56399014
  ---------------------------------------------------
  free energy    TOTEN  =       -28.28455696 eV

  energy without entropy =      -28.28455696


----------------------------------------- Iteration    3(  12)  ---------------------------------------


   POT+DIJ:  cpu time    0.07: real time    0.07
    HAMIL1:  cpu time    0.01: real time    0.01
    LRDIAG:  cpu time    0.01: real time    0.01
    LRDIIS:  cpu time    0.02: real time    0.02
    LRDIAG:  cpu time    0.01: real time    0.01
    MIXING:  cpu time    0.00: real time    0.00
    --------------------------------------------
      LOOP:  cpu time    0.15: real time    0.15

 Broyden mixing:
  rms(total) = 0.10989E-05    rms(broyden)= 0.10984E-05
  rms(prec ) = 0.16217E-05
  weight for this iteration     100.00

 eigenvalues of (default mixing * dielectric matrix)
  average eigenvalue GAMMA=   1.8485
  3.2034  2.7981  2.4391  2.4391  1.6717  1.4073  1.4073  1.0049  1.0049  1.1093

 Free energy of the ion-electron system (eV)
  ---------------------------------------------------
  -1/2 Hartree   DENC   =        -4.62981494
  -V(xc)+E(xc)   XCENC  =         0.95820217
  PAW double counting   =         3.07198601       -3.12093944
  entropy T*S    EENTRO =         0.00000000
  eigenvalues    EBANDS =       -24.56399121
  ---------------------------------------------------
  free energy    TOTEN  =       -28.28455742 eV

  energy without entropy =      -28.28455742


----------------------------------------- Iteration    3(  13)  ---------------------------------------


   POT+DIJ:  cpu time    0.08: real time    0.08
    HAMIL1:  cpu time    0.00: real time    0.01
    LRDIAG:  cpu time    0.01: real time    0.01
    LRDIIS:  cpu time    0.02: real time    0.02
    LRDIAG:  cpu time    0.01: real time    0.01
    MIXING:  cpu time    0.00: real time    0.00
    --------------------------------------------
      LOOP:  cpu time    0.15: real time    0.15

 Broyden mixing:
  rms(total) = 0.35346E-06    rms(broyden)= 0.35338E-06
  rms(prec ) = 0.59343E-06
  weight for this iteration     100.00

 eigenvalues of (default mixing * dielectric matrix)
  average eigenvalue GAMMA=   1.8131
  3.2061  2.8249  2.4487  2.5899  1.6694  1.6898  1.3649  1.1144  0.9831  1.0265
  1.0265

 Free energy of the ion-electron system (eV)
  ---------------------------------------------------
  -1/2 Hartree   DENC   =        -4.62981629
  -V(xc)+E(xc)   XCENC  =         0.95820236
  PAW double counting   =         3.07196672       -3.12091983
  entropy T*S    EENTRO =         0.00000000
  eigenvalues    EBANDS =       -24.56399104
  ---------------------------------------------------
  free energy    TOTEN  =       -28.28455808 eV

  energy without entropy =      -28.28455808


------------------------ aborting loop because EDIFF is reached ----------------------------------------


 change of polarisation eV/A/(eV/A) component  3 :    -0.135     0.099    50.529
 dielectric tensor                  component  3 :    -0.149     0.109    56.866


--------------------------------------------------------------------------------------------------------


    FORLOC:  cpu time    0.00: real time    0.00
    FORNL :  cpu time    0.09: real time    0.09
    STRESS:  cpu time    0.28: real time    0.28
    FORCOR:  cpu time    0.02: real time    0.02
    FORLOC:  cpu time    0.00: real time    0.00
    FORNL :  cpu time    0.09: real time    0.09
    STRESS:  cpu time    0.28: real time    0.28
    FORCOR:  cpu time    0.02: real time    0.02
    FORNLD:  cpu time    0.01: real time    0.01

 PIEZOELECTRIC TENSOR FIELD DIRECTION 3  (e Angst)
 -----------------------------------------------------------------------------
    -0.00636  0.00143  0.00080           ( -0.00002 -0.00001  0.00002)
     0.00143  0.00041 -0.00729           ( -0.00001  0.00000  0.00000)
     0.00080 -0.00729  0.00194           (  0.00002  0.00000  0.00001)

 PIEZOELECTRIC TENSOR FIELD DIRECTION 3  (C/m^2)
 -----------------------------------------------------------------------------
    -0.00062  0.00014  0.00008
     0.00014  0.00004 -0.00071
     0.00008 -0.00071  0.00019


      POSITION         DIRECTION 3           BORN EFFECTIVE CHARGE    (rigid.aug.   ionic)
 -----------------------------------------------------------------------------------------
      0.00105      0.00359      0.00228    -0.18818 -0.00059 -5.78700 (  0.21592  4.00000)
      1.37109      1.36978      1.36677    -0.02928  0.02537 -5.74838 (  0.21594  4.00000)
      2.73728      2.73427      0.00144     0.17262 -0.02529 -5.72552 (  0.21595  4.00000)
      4.10177      4.10394      1.36944    -0.02551 -0.00730 -5.74953 (  0.21593  4.00000)
      2.73644      0.00194      2.73515     0.19505  0.01935 -5.77465 (  0.21593  4.00000)
      4.10444      1.36765      4.10607     0.03755  0.00780 -5.78561 (  0.21593  4.00000)
      0.00015      2.73857      2.73489    -0.16558 -0.00439 -5.81803 (  0.21591  4.00000)
      1.37107      4.10239      4.10267     0.03712 -0.03672 -5.82539 (  0.21591  4.00000)
 -----------------------------------------------------------------------------------------
    total drift (improves with k-points):   0.03379 -0.02177-46.21411




--------------------------------------------------------------------------------------------------------


  LATTYP: Found a simple cubic cell.
 ALAT       =     5.4700000000
  
  Lattice vectors:
  
 A1 = (   5.4700000000,   0.0000000000,   0.0000000000)
 A2 = (   0.0000000000,   5.4700000000,   0.0000000000)
 A3 = (   0.0000000000,   0.0000000000,   5.4700000000)


Analysis of symmetry for initial positions (statically):
=====================================================================
 Subroutine PRICEL returns:
 Original cell was already a primitive cell.
 

 Routine SETGRP: Setting up the symmetry group for a 
 simple cubic supercell.


 Subroutine GETGRP returns: Found  1 space group operations
 (whereof  1 operations were pure point group operations)
 out of a pool of 48 trial point group operations.


The static configuration has the point symmetry C_1 .


Analysis of symmetry for dynamics (positions and initial velocities):
=====================================================================
 Subroutine PRICEL returns:
 Original cell was already a primitive cell.
 

 Routine SETGRP: Setting up the symmetry group for a 
 simple cubic supercell.


 Subroutine GETGRP returns: Found  1 space group operations
 (whereof  1 operations were pure point group operations)
 out of a pool of 48 trial point group operations.


The dynamic configuration has the point symmetry C_1 .


 MACROSCOPIC STATIC DIELECTRIC TENSOR (including local field effects in DFT)
 ------------------------------------------------------
          56.857132     0.039748    -0.149230
           0.039747    56.865580     0.109094
          -0.149230     0.109094    56.866125
 ------------------------------------------------------



--------------------------------------------------------------------------------------------------------


  LATTYP: Found a simple cubic cell.
 ALAT       =     5.4700000000
  
  Lattice vectors:
  
 A1 = (   5.4700000000,   0.0000000000,   0.0000000000)
 A2 = (   0.0000000000,   5.4700000000,   0.0000000000)
 A3 = (   0.0000000000,   0.0000000000,   5.4700000000)


Analysis of symmetry for initial positions (statically):
=====================================================================
 Subroutine PRICEL returns:
 Original cell was already a primitive cell.
 

 Routine SETGRP: Setting up the symmetry group for a 
 simple cubic supercell.


 Subroutine GETGRP returns: Found  1 space group operations
 (whereof  1 operations were pure point group operations)
 out of a pool of 48 trial point group operations.


The static configuration has the point symmetry C_1 .


Analysis of symmetry for dynamics (positions and initial velocities):
=====================================================================
 Subroutine PRICEL returns:
 Original cell was already a primitive cell.
 

 Routine SETGRP: Setting up the symmetry group for a 
 simple cubic supercell.


 Subroutine GETGRP returns: Found  1 space group operations
 (whereof  1 operations were pure point group operations)
 out of a pool of 48 trial point group operations.


The dynamic configuration has the point symmetry C_1 .
 
 KPOINTS: Automatic mesh                          

Automatic generation of k-mesh.
Space group operators:
 irot       det(A)        alpha          n_x          n_y          n_z        tau_x        tau_y        tau_z
    1     1.000000     0.000001     1.000000     0.000000     0.000000     0.000000     0.000000     0.000000
 
 Subroutine IBZKPT returns following result:
 ===========================================
 
 Found      1 irreducible k-points:
 
 Following reciprocal coordinates:
            Coordinates               Weight
  0.000000  0.000000  0.000000      1.000000
 
 Following cartesian coordinates:
            Coordinates               Weight
  0.000000  0.000000  0.000000      1.000000
 


--------------------------------------------------------------------------------------------------------




 MACROSCOPIC STATIC DIELECTRIC TENSOR (including local field effects in DFT)
 ------------------------------------------------------
          56.857132     0.039748    -0.149230
           0.039747    56.865580     0.109094
          -0.149230     0.109094    56.866125
 ------------------------------------------------------


 PIEZOELECTRIC TENSOR  for field in x, y, z        (e  Angst)
          XX          YY          ZZ          XY          YZ          ZX
  --------------------------------------------------------------------------------
  x    -0.00396    -0.00230     0.00412     0.00092     0.00110     0.00066
  y     0.01471    -0.00353    -0.00541    -0.00160     0.00358    -0.00035
  z    -0.00636     0.00041     0.00194     0.00143    -0.00729     0.00080

 PIEZOELECTRIC TENSOR  for field in x, y, z        (C/m^2)
          XX          YY          ZZ          XY          YZ          ZX
  --------------------------------------------------------------------------------
  x    -0.00039    -0.00022     0.00040     0.00009     0.00011     0.00006
  y     0.00144    -0.00035    -0.00053    -0.00016     0.00035    -0.00003
  z    -0.00062     0.00004     0.00019     0.00014    -0.00071     0.00008
 
 BORN EFFECTIVE CHARGES (in e, cummulative output)
 -------------------------------------------------
 ion    1
    1    -5.81451     0.02960     0.13029
    2    -0.00747    -5.80155     0.02462
    3    -0.18818    -0.00059    -5.78700
 ion    2
    1    -5.76917     0.13975     0.02425
    2    -0.19160    -5.75108    -0.02342
    3    -0.02928     0.02537    -5.74838
 ion    3
    1    -5.71912    -0.03255    -0.13189
    2     0.00585    -5.73355     0.03923
    3     0.17262    -0.02529    -5.72552
 ion    4
    1    -5.75391    -0.14171     0.02823
    2     0.18779    -5.77224     0.03060
    3    -0.02551    -0.00730    -5.74953
 ion    5
    1    -5.74790     0.02199    -0.12016
    2    -0.01269    -5.76617    -0.04604
    3     0.19505     0.01935    -5.77465
 ion    6
    1    -5.76224    -0.12177    -0.02063
    2     0.16797    -5.76260    -0.03024
    3     0.03755     0.00780    -5.78561
 ion    7
    1    -5.82487    -0.02546     0.14341
    2     0.01036    -5.80594    -0.03000
    3    -0.16558    -0.00439    -5.81803
 ion    8
    1    -5.82223     0.12121    -0.01973
    2    -0.16942    -5.82255     0.01356
    3     0.03712    -0.03672    -5.82539


--------------------------------------------------------------------------------------------------------


     LOOP+:  cpu time   20.72: real time   21.10
    4ORBIT:  cpu time    0.00: real time    0.00

 total amount of memory used by VASP on root node    32224. kBytes
========================================================================

   base      :      30000. kBytes
   nonl-proj :        202. kBytes
   fftplans  :        782. kBytes
   grid      :       1198. kBytes
   one-center:         24. kBytes
   wavefun   :         18. kBytes
 
  
  
 General timing and accounting informations for this job:
 ========================================================
  
                  Total CPU time used (sec):       21.489
                            User time (sec):       17.229
                          System time (sec):        4.259
                         Elapsed time (sec):       23.338
  
                   Maximum memory used (kb):       62780.
                   Average memory used (kb):           0.
  
                          Minor page faults:       197345
                          Major page faults:            0
                 Voluntary context switches:         1440
