 vasp.5.3.3 18Dez12 (build Jan  9 2014 12:00:49) complex                        
  
 executed on             LinuxIFC date 2014.01.29  10:05:23
 running on   48 total cores
 distrk:  each k-point on   48 cores,    1 groups
 distr:  one band on NCORES_PER_BAND=   1 cores,   48 groups


--------------------------------------------------------------------------------------------------------


 INCAR:
 POTCAR:    PAW Si                                

 ----------------------------------------------------------------------------- 
|                                                                             |
|           W    W    AA    RRRRR   N    N  II  N    N   GGGG   !!!           |
|           W    W   A  A   R    R  NN   N  II  NN   N  G    G  !!!           |
|           W    W  A    A  R    R  N N  N  II  N N  N  G       !!!           |
|           W WW W  AAAAAA  RRRRR   N  N N  II  N  N N  G  GGG   !            |
|           WW  WW  A    A  R   R   N   NN  II  N   NN  G    G                |
|           W    W  A    A  R    R  N    N  II  N    N   GGGG   !!!           |
|                                                                             |
|      For optimal performance we recommend that you set                      |
|        NPAR = 4 - approx SQRT( number of cores)                             |
|      (number of cores/NPAR must be integer)                                 |
|      This setting will greatly improve the performance of VASP for DFT.     |
|      The default NPAR=number of cores might be grossly inefficient          |
|      on modern multi-core architectures or massively parallel machines.     |
|      Do your own testing.                                                   |
|      Unfortunately you need to use the default for hybrid, GW and RPA       |
|      calculations.                                                          |
|                                                                             |
 ----------------------------------------------------------------------------- 

 POTCAR:    PAW Si                                
   VRHFIN =Si: s2p2                                                             
   LEXCH  = 91                                                                  
   EATOM  =   103.3076 eV,    7.5929 Ry                                         
                                                                                
   TITEL  = PAW Si                                                              
   LULTRA =        F    use ultrasoft PP ?                                      
   IUNSCR =        1    unscreen: 0-lin 1-nonlin 2-no                           
   RPACOR =    1.500    partial core radius                                     
   POMASS =   28.085; ZVAL   =    4.000    mass and valenz                      
   RCORE  =    1.900    outmost cutoff radius                                   
   RWIGS  =    2.480; RWIGS  =    1.312    wigner-seitz radius (au A)           
   ENMAX  =  245.435; ENMIN  =  184.076 eV                                      
   ICORE  =        2    local potential                                         
   LCOR   =        T    correct aug charges                                     
   LPAW   =        T    paw PP                                                  
   EAUG   =  322.069                                                            
   DEXC   =    -.001                                                            
   RMAX   =    2.943    core radius for proj-oper                               
   RAUG   =    1.300    factor for augmentation sphere                          
   RDEP   =    1.993    core radius for depl-charge                             
   QCUT   =   -4.247; QGAM   =    8.494    optimization parameters              
                                                                                
   Description                                                                  
     l     E      TYP  RCUT    TYP  RCUT                                        
     0   .000     23  1.900                                                     
     0   .000     23  1.900                                                     
     1   .000     23  1.900                                                     
     1   .000     23  1.900                                                     
     2   .000      7  1.900                                                     
  local pseudopotential read in
  partial core-charges read in
  atomic valenz-charges read in
  non local Contribution for L=           0  read in
    real space projection operators read in
  non local Contribution for L=           0  read in
    real space projection operators read in
  non local Contribution for L=           1  read in
    real space projection operators read in
  non local Contribution for L=           1  read in
    real space projection operators read in
    PAW grid and wavefunctions read in
 
   number of l-projection  operators is LMAX  =           4
   number of lm-projection operators is LMMAX =           8
 
  PAW Si                                :
 energy of atom  1       EATOM= -103.3076
 kinetic energy error for atom=    0.0109 (will be added to EATOM!!)
 
 
 POSCAR: OUTCAR.0014.-1.out 1.0e-02              
  positions in cartesian coordinates
  No initial velocities read in
 exchange correlation table for  LEXCH =        7
   RHO(1)=    0.500       N(1)  =     2000
   RHO(2)=  100.500       N(2)  =     4000

 VTST: version 3.0c, (01/09/14)

 CHAIN: initializing optimizer
 
 OPT: Using VASP Dynamics algorithm
 CHAIN: Read ICHAIN            0
 
 POSCAR: OUTCAR.0014.-1.out 1.0e-02              
  positions in cartesian coordinates
  No initial velocities read in
 


--------------------------------------------------------------------------------------------------------


 ion  position               nearest neighbor table
   1  0.999  1.000  1.000-   6 2.36   4 2.37   8 2.37   2 2.37
   2  0.250  0.250  0.250-   5 2.36   3 2.37   7 2.37   1 2.37
   3  0.500  0.500  0.000-   8 2.37   2 2.37   4 2.37   6 2.37
   4  0.750  0.750  0.251-   7 2.36   5 2.37   1 2.37   3 2.37
   5  0.500  0.001  0.499-   2 2.36   4 2.37   6 2.37   8 2.37
   6  0.751  0.249  0.750-   1 2.36   7 2.37   5 2.37   3 2.37
   7  0.999  0.500  0.500-   4 2.36   6 2.37   2 2.37   8 2.37
   8  0.250  0.750  0.750-   3 2.37   1 2.37   7 2.37   5 2.37
 
  LATTYP: Found a simple cubic cell.
 ALAT       =     5.4700000000
  
  Lattice vectors:
  
 A1 = (   5.4700000000,   0.0000000000,   0.0000000000)
 A2 = (   0.0000000000,   5.4700000000,   0.0000000000)
 A3 = (   0.0000000000,   0.0000000000,   5.4700000000)


Analysis of symmetry for initial positions (statically):
=====================================================================
 Subroutine PRICEL returns:
 Original cell was already a primitive cell.
 

 Routine SETGRP: Setting up the symmetry group for a 
 simple cubic supercell.


 Subroutine GETGRP returns: Found  1 space group operations
 (whereof  1 operations were pure point group operations)
 out of a pool of 48 trial point group operations.


The static configuration has the point symmetry C_1 .


Analysis of symmetry for dynamics (positions and initial velocities):
=====================================================================
 Subroutine PRICEL returns:
 Original cell was already a primitive cell.
 

 Routine SETGRP: Setting up the symmetry group for a 
 simple cubic supercell.


 Subroutine GETGRP returns: Found  1 space group operations
 (whereof  1 operations were pure point group operations)
 out of a pool of 48 trial point group operations.


The dynamic configuration has the point symmetry C_1 .


 irot  :   1
 --------------------------------------------------------------------
 isymop:   1   0   0
           0   1   0
           0   0   1

 gtrans:     0.0000000     0.0000000     0.0000000

 ptrans:     0.0000000     0.0000000     0.0000000
 rotmap:
 (   1->   1)  (   2->   2)  (   3->   3)  (   4->   4)  (   5->   5) 
 (   6->   6)  (   7->   7)  (   8->   8) 
 
 
 KPOINTS: Automatic mesh                          

Automatic generation of k-mesh.
Space group operators:
 irot       det(A)        alpha          n_x          n_y          n_z        tau_x        tau_y        tau_z
    1     1.000000     0.000001     1.000000     0.000000     0.000000     0.000000     0.000000     0.000000
 
 Subroutine IBZKPT returns following result:
 ===========================================
 
 Found      1 irreducible k-points:
 
 Following reciprocal coordinates:
            Coordinates               Weight
  0.000000  0.000000  0.000000      1.000000
 
 Following cartesian coordinates:
            Coordinates               Weight
  0.000000  0.000000  0.000000      1.000000
 
 
 Subroutine IBZKPT_HF returns following result:
 ==============================================
 
 Found      1 k-points in 1st BZ
 the following      1 k-points will be used (e.g. in the exchange kernel)
 Following reciprocal coordinates:   # in IRBZ
  0.000000  0.000000  0.000000       1 t-inv F


--------------------------------------------------------------------------------------------------------




 Dimension of arrays:
   k-points           NKPTS =      1   k-points in BZ     NKDIM =      1   number of bands    NBANDS=     48
   number of dos      NEDOS =    301   number of ions     NIONS =      8
   non local maximal  LDIM  =      4   non local SUM 2l+1 LMDIM =      8
   total plane-waves  NPLWV =  21952
   max r-space proj   IRMAX =      1   max aug-charges    IRDMAX=  36071
   dimension x,y,z NGX =    28 NGY =   28 NGZ =   28
   dimension x,y,z NGXF=    56 NGYF=   56 NGZF=   56
   support grid    NGXF=   112 NGYF=  112 NGZF=  112
   ions per type =               8
 NGX,Y,Z   is equivalent  to a cutoff of   8.51,  8.51,  8.51 a.u.
 NGXF,Y,Z  is equivalent  to a cutoff of  17.02, 17.02, 17.02 a.u.


 I would recommend the setting:
   dimension x,y,z NGX =    19 NGY =   19 NGZ =   19
 SYSTEM =  NAPTHA04                                
 POSCAR =  OUTCAR.0014.-1.out 1.0e-02              

 Startparameter for this run:
   NWRITE =      3    write-flag & timer
   PREC   = normal    normal or accurate (medium, high low for compatibility)
   ISTART =      0    job   : 0-new  1-cont  2-samecut
   ICHARG =      2    charge: 1-file 2-atom 10-const
   ISPIN  =      1    spin polarized calculation?
   LNONCOLLINEAR =      F non collinear calculations
   LSORBIT =      F    spin-orbit coupling
   INIWAV =      1    electr: 0-lowe 1-rand  2-diag
   LASPH  =      F    aspherical Exc in radial PAW
   METAGGA=      F    non-selfconsistent MetaGGA calc.

 Electronic Relaxation 1
   ENCUT  =  200.0 eV  14.70 Ry    3.83 a.u.   6.31  6.31  6.31*2*pi/ulx,y,z
   ENINI  =  200.0     initial cutoff
   ENAUG  =  322.1 eV  augmentation charge cutoff
   NELM   =     60;   NELMIN=  2; NELMDL= -5     # of ELM steps 
   EDIFF  = 0.1E-07   stopping-criterion for ELM
   LREAL  =      F    real-space projection
   NLSPLINE    = F    spline interpolate recip. space projectors
   LCOMPAT=      F    compatible to vasp.4.4
   GGA_COMPAT  = T    GGA compatible to vasp.4.4-vasp.4.6
   LMAXPAW     = -100 max onsite density
   LMAXMIX     =    2 max onsite mixed and CHGCAR
   VOSKOWN=      0    Vosko Wilk Nusair interpolation
   ROPT   =    0.00000
 Ionic relaxation
   EDIFFG = 0.1E-06   stopping-criterion for IOM
   NSW    =      0    number of steps for IOM
   NBLOCK =      1;   KBLOCK =      1    inner block; outer block 
   IBRION =     -1    ionic relax: 0-MD 1-quasi-New 2-CG
   NFREE  =      0    steps in history (QN), initial steepest desc. (CG)
   ISIF   =      2    stress and relaxation
   IWAVPR =     10    prediction:  0-non 1-charg 2-wave 3-comb
   ISYM   =      2    0-nonsym 1-usesym 2-fastsym
   LCORR  =      T    Harris-Foulkes like correction to forces

   POTIM  = 0.5000    time-step for ionic-motion
   TEIN   =    0.0    initial temperature
   TEBEG  =    0.0;   TEEND  =   0.0 temperature during run
   SMASS  =  -3.00    Nose mass-parameter (am)
   estimated Nose-frequenzy (Omega)   =  0.10E-29 period in steps =****** mass=  -0.684E-27a.u.
   SCALEE = 1.0000    scale energy and forces
   NPACO  =    256;   APACO  = 16.0  distance and # of slots for P.C.
   PSTRESS=    0.0 pullay stress

  Mass of Ions in am
   POMASS =  28.09
  Ionic Valenz
   ZVAL   =   4.00
  Atomic Wigner-Seitz radii
   RWIGS  =  -1.00
  virtual crystal weights 
   VCA    =   1.00
   NELECT =      32.0000    total number of electrons
   NUPDOWN=      -1.0000    fix difference up-down

 DOS related values:
   EMIN   =  10.00;   EMAX   =-10.00  energy-range for DOS
   EFERMI =   0.00
   ISMEAR =     0;   SIGMA  =   0.02  broadening in eV -4-tet -1-fermi 0-gaus

 Electronic relaxation 2 (details)
   IALGO  =     68    algorithm
   LDIAG  =      T    sub-space diagonalisation (order eigenvalues)
   LSUBROT=      T    optimize rotation matrix (better conditioning)
   TURBO    =      0    0=normal 1=particle mesh
   IRESTART =      0    0=no restart 2=restart with 2 vectors
   NREBOOT  =      0    no. of reboots
   NMIN     =      0    reboot dimension
   EREF     =   0.00    reference energy to select bands
   IMIX   =      4    mixing-type and parameters
     AMIX     =   0.40;   BMIX     =  1.00
     AMIX_MAG =   1.60;   BMIX_MAG =  1.00
     AMIN     =   0.10
     WC   =   100.;   INIMIX=   1;  MIXPRE=   1;  MAXMIX= -45

 Intra band minimization:
   WEIMIN = 0.0000     energy-eigenvalue tresh-hold
   EBREAK =  0.52E-10  absolut break condition
   DEPER  =   0.30     relativ break condition  

   TIME   =   0.40     timestep for ELM

  volume/ion in A,a.u.               =      20.46       138.06
  Fermi-wavevector in a.u.,A,eV,Ry     =   0.950176  1.795573 12.283814  0.902835
  Thomas-Fermi vector in A             =   2.078528
 
 Write flags
   LWAVE  =      F    write WAVECAR
   LCHARG =      F    write CHGCAR
   LVTOT  =      F    write LOCPOT, total local potential
   LVHAR  =      F    write LOCPOT, Hartree potential only
   LELF   =      F    write electronic localiz. function (ELF)
   LORBIT =      0    0 simple, 1 ext, 2 COOP (PROOUT)


 Dipole corrections
   LMONO  =      F    monopole corrections only (constant potential shift)
   LDIPOL =      F    correct potential (dipole corrections)
   IDIPOL =      0    1-x, 2-y, 3-z, 4-all directions 
   EPSILON=  1.0000000 bulk dielectric constant

 Exchange correlation treatment:
   GGA     =    --    GGA type
   LEXCH   =     7    internal setting for exchange type
   VOSKOWN=      0    Vosko Wilk Nusair interpolation
   LHFCALC =     F    Hartree Fock is set to
   LHFONE  =     F    Hartree Fock one center treatment
   AEXX    =    0.0000 exact exchange contribution

 Linear response parameters
   LEPSILON=     T    determine dielectric tensor
   LRPA    =     F    only Hartree local field effects (RPA)
   LNABLA  =     F    use nabla operator in PAW spheres
   LVEL    =     F    velocity operator in full k-point grid
   LINTERFAST=   F  fast interpolation
   KINTER  =     0    interpolate to denser k-point grid
   CSHIFT  =0.1000    complex shift for real part using Kramers Kronig
   OMEGAMAX=  -1.0    maximum frequency
   DEG_THRESHOLD= 0.2000000E-02 threshold for treating states as degnerate
   RTIME   =    0.100 relaxation time in fs

 Orbital magnetization related:
   ORBITALMAG=     F  switch on orbital magnetization
   LCHIMAG   =     F  perturbation theory with respect to B field
   DQ        =  0.001000  dq finite difference perturbation B field



--------------------------------------------------------------------------------------------------------


 Static calculation
 charge density and potential will be updated during run
 non-spin polarized calculation
 RMM-DIIS sequential band-by-band and
  variant of blocked Davidson during initial phase
 perform sub-space diagonalisation
    before iterative eigenvector-optimisation
 modified Broyden-mixing scheme, WC =      100.0
 initial mixing is a Kerker type mixing with AMIX =  0.4000 and BMIX =      1.0000
 Hartree-type preconditioning will be used
 using additional bands           32
 reciprocal scheme for non local part
 use partial core corrections
 calculate Harris-corrections to forces 
   (improved forces if not selfconsistent)
 use gradient corrections 
 use of overlap-Matrix (Vanderbilt PP)
 Gauss-broadening in eV      SIGMA  =   0.02


--------------------------------------------------------------------------------------------------------


  energy-cutoff  :      200.00
  volume of cell :      163.67
      direct lattice vectors                 reciprocal lattice vectors
     5.470000000  0.000000000  0.000000000     0.182815356  0.000000000  0.000000000
     0.000000000  5.470000000  0.000000000     0.000000000  0.182815356  0.000000000
     0.000000000  0.000000000  5.470000000     0.000000000  0.000000000  0.182815356

  length of vectors
     5.470000000  5.470000000  5.470000000     0.182815356  0.182815356  0.182815356


 
 k-points in units of 2pi/SCALE and weight: Automatic mesh                          
   0.00000000  0.00000000  0.00000000       1.000
 
 k-points in reciprocal lattice and weights: Automatic mesh                          
   0.00000000  0.00000000  0.00000000       1.000
 
 position of ions in fractional coordinates (direct lattice) 
   0.99928155  0.99999585  0.99989487
   0.24999585  0.24989487  0.25028571
   0.49989487  0.50028571  0.00002957
   0.75028571  0.75002957  0.25060578
   0.50002957  0.00060578  0.49931806
   0.75060578  0.24931806  0.75003397
   0.99931806  0.50003397  0.50014955
   0.25003397  0.75014955  0.75003187
 
 position of ions in cartesian coordinates  (Angst):
   5.46607010  5.46997731  5.46942495
   1.36747731  1.36692495  1.36906286
   2.73442495  2.73656286  0.00016173
   4.10406286  4.10266173  1.37081364
   2.73516173  0.00331364  2.73126977
   4.10581364  1.36376977  4.10268580
   5.46626977  2.73518580  2.73581805
   1.36768580  4.10331805  4.10267434
 


--------------------------------------------------------------------------------------------------------


 k-point  1 :   0.0000 0.0000 0.0000  plane waves:    1021

 maximum and minimum number of plane-waves per node :      1021     1021

 maximum number of plane-waves:      1021
 maximum index in each direction: 
   IXMAX=    6   IYMAX=    6   IZMAX=    6
   IXMIN=   -6   IYMIN=   -6   IZMIN=   -6

 NGX is ok and might be reduce to  26
 NGY is ok and might be reduce to  26
 NGZ is ok and might be reduce to  26

 serial   3D FFT for wavefunctions
 parallel 3D FFT for charge:
    minimum data exchange during FFTs selected (reduces bandwidth)


 total amount of memory used by VASP on root node    32224. kBytes
========================================================================

   base      :      30000. kBytes
   nonl-proj :        202. kBytes
   fftplans  :        782. kBytes
   grid      :       1198. kBytes
   one-center:         24. kBytes
   wavefun   :         18. kBytes
 
 Broyden mixing: mesh for mixing (old mesh)
   NGX = 13   NGY = 13   NGZ = 13
  (NGX  = 56   NGY  = 56   NGZ  = 56)
  gives a total of   2197 points

 initial charge density was supplied:
 charge density of overlapping atoms calculated
 number of electron      32.0000000 magnetization 
 keeping initial charge density in first step


--------------------------------------------------------------------------------------------------------


 Maximum index for augmentation-charges         1790 (set IRDMAX)


--------------------------------------------------------------------------------------------------------


 First call to EWALD:  gamma=   0.324
 Maximum number of real-space cells 3x 3x 3
 Maximum number of reciprocal cells 3x 3x 3

 FEWALD executed in parallel
    FEWALD:  cpu time    0.00: real time    0.00


----------------------------------------- Iteration    1(   1)  ---------------------------------------


    POTLOK:  cpu time    0.03: real time    0.03
    SETDIJ:  cpu time    0.02: real time    0.02
     EDDAV:  cpu time    0.40: real time    0.40
       DOS:  cpu time    0.00: real time    0.00
    --------------------------------------------
      LOOP:  cpu time    0.45: real time    0.47

 eigenvalue-minimisations  :    96
 total energy-change (2. order) :-0.1014772E+02  (-0.7956294E+03)
 number of electron      32.0000000 magnetization 
 augmentation part       32.0000000 magnetization 

 Free energy of the ion-electron system (eV)
  ---------------------------------------------------
  alpha Z        PSCENC =        12.68944982
  Ewald energy   TEWEN  =      -907.56621801
  -1/2 Hartree   DENC   =       -45.63652264
  -exchange  EXHF       =         0.00000000
  -V(xc)+E(xc)   XCENC  =       -76.79671113
  PAW double counting   =       265.93453375     -123.69690146
  entropy T*S    EENTRO =        -0.00021482
  eigenvalues    EBANDS =        38.55088750
  atomic energy  EATOM  =       826.37398168
  ---------------------------------------------------
  free energy    TOTEN  =       -10.14771531 eV

  energy without entropy =      -10.14750049  energy(sigma->0) =      -10.14760790


--------------------------------------------------------------------------------------------------------




 average (electrostatic) potential at core
  the test charge radii are     0.9892
  (the norm of the test charge is              1.0000)
       1 -84.3532       2 -84.3492       3 -84.3439       4 -84.3544       5 -84.3530
       6 -84.3536       7 -84.3525       8 -84.3454
 
 
 
 E-fermi :   6.6082     XC(G=0):  -9.5533     alpha+bet :-11.7379


 k-point   1 :       0.0000    0.0000    0.0000
  band No.  band energies     occupation 
      1      -6.5897      2.00000
      2      -2.4184      2.00000
      3      -2.2469      2.00000
      4      -2.1173      2.00000
      5      -2.0297      2.00000
      6      -1.8755      2.00000
      7      -1.6797      2.00000
      8       2.7410      2.00000
      9       2.8471      2.00000
     10       2.9920      2.00000
     11       3.1633      2.00000
     12       3.3470      2.00000
     13       4.0849      2.00000
     14       6.1327      2.00000
     15       6.3596      2.00000
     16       6.5650      1.99772
     17       6.6513      0.00228
     18       6.8021      0.00000
     19       6.9019      0.00000
     20       7.1721      0.00000
     21       7.3867      0.00000
     22       8.0465      0.00000
     23       8.9831      0.00000
     24       9.3762      0.00000
     25      10.4500      0.00000
     26      11.4519      0.00000
     27      13.5067      0.00000
     28      14.7724      0.00000
     29      16.5595      0.00000
     30      16.8931      0.00000
     31      17.3606      0.00000
     32      17.5863      0.00000
     33      17.9316      0.00000
     34      18.1243      0.00000
     35      18.4999      0.00000
     36      18.8794      0.00000
     37      19.3674      0.00000
     38      19.5125      0.00000
     39      19.8692      0.00000
     40      20.2538      0.00000
     41      21.0975      0.00000
     42      21.6826      0.00000
     43      22.1793      0.00000
     44      22.7546      0.00000
     45      23.8953      0.00000
     46      24.4001      0.00000
     47      24.8247      0.00000
     48      25.8372      0.00000


--------------------------------------------------------------------------------------------------------


 soft charge-density along one line, spin component           1
         0         1         2         3         4         5         6         7         8         9
 total charge-density along one line
 
 pseudopotential strength for first ion, spin component:           1
 18.662   0.000   0.000   0.000   0.000   0.000   0.000   0.000
  0.000   0.006   0.000   0.000   0.000   0.000   0.000   0.000
  0.000   0.000   4.216   0.000   0.000  -0.004   0.000   0.000
  0.000   0.000   0.000   4.216   0.000   0.000  -0.004   0.000
  0.000   0.000   0.000   0.000   4.216   0.000   0.000  -0.004
  0.000   0.000  -0.004   0.000   0.000   0.005   0.000   0.000
  0.000   0.000   0.000  -0.004   0.000   0.000   0.005   0.000
  0.000   0.000   0.000   0.000  -0.004   0.000   0.000   0.005
 total augmentation occupancy for first ion, spin component:           1
  2.000   0.000   0.000   0.000   0.000   0.000   0.000   0.000
  0.000   0.000   0.000   0.000   0.000   0.000   0.000   0.000
  0.000   0.000   0.667   0.000   0.000   0.000   0.000   0.000
  0.000   0.000   0.000   0.667   0.000   0.000   0.000   0.000
  0.000   0.000   0.000   0.000   0.667   0.000   0.000   0.000
  0.000   0.000   0.000   0.000   0.000   0.000   0.000   0.000
  0.000   0.000   0.000   0.000   0.000   0.000   0.000   0.000
  0.000   0.000   0.000   0.000   0.000   0.000   0.000   0.000


----------------------------------------- Iteration    1(   2)  ---------------------------------------


     EDDAV:  cpu time    0.97: real time    0.97
       DOS:  cpu time    0.00: real time    0.00
    --------------------------------------------
      LOOP:  cpu time    0.98: real time    0.98

 eigenvalue-minimisations  :   144
 total energy-change (2. order) :-0.2430241E+02  (-0.2430026E+02)
 number of electron      32.0000000 magnetization 
 augmentation part       32.0000000 magnetization 

 Free energy of the ion-electron system (eV)
  ---------------------------------------------------
  alpha Z        PSCENC =        12.68944982
  Ewald energy   TEWEN  =      -907.56621801
  -1/2 Hartree   DENC   =       -45.63652264
  -exchange  EXHF       =         0.00000000
  -V(xc)+E(xc)   XCENC  =       -76.79671113
  PAW double counting   =       265.93453375     -123.69690146
  entropy T*S    EENTRO =         0.00000000
  eigenvalues    EBANDS =        14.24826043
  atomic energy  EATOM  =       826.37398168
  ---------------------------------------------------
  free energy    TOTEN  =       -34.45012756 eV

  energy without entropy =      -34.45012756  energy(sigma->0) =      -34.45012756


--------------------------------------------------------------------------------------------------------




 average (electrostatic) potential at core
  the test charge radii are     0.9892
  (the norm of the test charge is              1.0000)
       1 -84.3532       2 -84.3492       3 -84.3439       4 -84.3544       5 -84.3530
       6 -84.3536       7 -84.3525       8 -84.3454
 
 
 
 E-fermi :   5.2542     XC(G=0):  -9.5533     alpha+bet :-11.7379


 k-point   1 :       0.0000    0.0000    0.0000
  band No.  band energies     occupation 
      1      -6.6372      2.00000
      2      -2.6459      2.00000
      3      -2.6389      2.00000
      4      -2.6328      2.00000
      5      -2.6299      2.00000
      6      -2.6176      2.00000
      7      -2.6100      2.00000
      8       2.3718      2.00000
      9       2.3747      2.00000
     10       2.3792      2.00000
     11       2.3839      2.00000
     12       2.3886      2.00000
     13       2.3979      2.00000
     14       5.0490      2.00000
     15       5.0895      2.00000
     16       5.1017      2.00000
     17       6.1402      0.00000
     18       6.1505      0.00000
     19       6.1522      0.00000
     20       6.1572      0.00000
     21       6.1692      0.00000
     22       6.1705      0.00000
     23       7.8455      0.00000
     24       7.8537      0.00000
     25       7.8723      0.00000
     26       8.1266      0.00000
     27      13.2006      0.00000
     28      13.2626      0.00000
     29      13.2699      0.00000
     30      15.0991      0.00000
     31      15.1342      0.00000
     32      15.1662      0.00000
     33      15.2497      0.00000
     34      15.3153      0.00000
     35      15.6378      0.00000
     36      16.3805      0.00000
     37      16.4317      0.00000
     38      16.4456      0.00000
     39      16.5391      0.00000
     40      16.7151      0.00000
     41      16.7457      0.00000
     42      16.7752      0.00000
     43      16.8728      0.00000
     44      17.2399      0.00000
     45      17.9149      0.00000
     46      17.9421      0.00000
     47      17.9895      0.00000
     48      18.0274      0.00000


--------------------------------------------------------------------------------------------------------


 soft charge-density along one line, spin component           1
         0         1         2         3         4         5         6         7         8         9
 total charge-density along one line
 
 pseudopotential strength for first ion, spin component:           1
 18.662   0.000   0.000   0.000   0.000   0.000   0.000   0.000
  0.000   0.006   0.000   0.000   0.000   0.000   0.000   0.000
  0.000   0.000   4.216   0.000   0.000  -0.004   0.000   0.000
  0.000   0.000   0.000   4.216   0.000   0.000  -0.004   0.000
  0.000   0.000   0.000   0.000   4.216   0.000   0.000  -0.004
  0.000   0.000  -0.004   0.000   0.000   0.005   0.000   0.000
  0.000   0.000   0.000  -0.004   0.000   0.000   0.005   0.000
  0.000   0.000   0.000   0.000  -0.004   0.000   0.000   0.005
 total augmentation occupancy for first ion, spin component:           1
  2.000   0.000   0.000   0.000   0.000   0.000   0.000   0.000
  0.000   0.000   0.000   0.000   0.000   0.000   0.000   0.000
  0.000   0.000   0.667   0.000   0.000   0.000   0.000   0.000
  0.000   0.000   0.000   0.667   0.000   0.000   0.000   0.000
  0.000   0.000   0.000   0.000   0.667   0.000   0.000   0.000
  0.000   0.000   0.000   0.000   0.000   0.000   0.000   0.000
  0.000   0.000   0.000   0.000   0.000   0.000   0.000   0.000
  0.000   0.000   0.000   0.000   0.000   0.000   0.000   0.000


----------------------------------------- Iteration    1(   3)  ---------------------------------------


     EDDAV:  cpu time    0.39: real time    0.39
       DOS:  cpu time    0.00: real time    0.00
    --------------------------------------------
      LOOP:  cpu time    0.39: real time    0.40

 eigenvalue-minimisations  :    96
 total energy-change (2. order) :-0.1670169E+00  (-0.1670169E+00)
 number of electron      32.0000000 magnetization 
 augmentation part       32.0000000 magnetization 

 Free energy of the ion-electron system (eV)
  ---------------------------------------------------
  alpha Z        PSCENC =        12.68944982
  Ewald energy   TEWEN  =      -907.56621801
  -1/2 Hartree   DENC   =       -45.63652264
  -exchange  EXHF       =         0.00000000
  -V(xc)+E(xc)   XCENC  =       -76.79671113
  PAW double counting   =       265.93453375     -123.69690146
  entropy T*S    EENTRO =         0.00000000
  eigenvalues    EBANDS =        14.08124357
  atomic energy  EATOM  =       826.37398168
  ---------------------------------------------------
  free energy    TOTEN  =       -34.61714442 eV

  energy without entropy =      -34.61714442  energy(sigma->0) =      -34.61714442


--------------------------------------------------------------------------------------------------------




 average (electrostatic) potential at core
  the test charge radii are     0.9892
  (the norm of the test charge is              1.0000)
       1 -84.3532       2 -84.3492       3 -84.3439       4 -84.3544       5 -84.3530
       6 -84.3536       7 -84.3525       8 -84.3454
 
 
 
 E-fermi :   5.2242     XC(G=0):  -9.5533     alpha+bet :-11.7379


 k-point   1 :       0.0000    0.0000    0.0000
  band No.  band energies     occupation 
      1      -6.6372      2.00000
      2      -2.6481      2.00000
      3      -2.6410      2.00000
      4      -2.6355      2.00000
      5      -2.6323      2.00000
      6      -2.6187      2.00000
      7      -2.6127      2.00000
      8       2.3689      2.00000
      9       2.3711      2.00000
     10       2.3766      2.00000
     11       2.3780      2.00000
     12       2.3845      2.00000
     13       2.3869      2.00000
     14       5.0404      2.00000
     15       5.0759      2.00000
     16       5.0838      2.00000
     17       6.1369      0.00000
     18       6.1481      0.00000
     19       6.1493      0.00000
     20       6.1540      0.00000
     21       6.1643      0.00000
     22       6.1665      0.00000
     23       7.8400      0.00000
     24       7.8444      0.00000
     25       7.8642      0.00000
     26       8.1178      0.00000
     27      13.1845      0.00000
     28      13.1867      0.00000
     29      13.2693      0.00000
     30      15.0813      0.00000
     31      15.0871      0.00000
     32      15.0924      0.00000
     33      15.1116      0.00000
     34      15.1296      0.00000
     35      15.1847      0.00000
     36      16.3134      0.00000
     37      16.3312      0.00000
     38      16.3453      0.00000
     39      16.3656      0.00000
     40      16.4311      0.00000
     41      16.4903      0.00000
     42      16.7090      0.00000
     43      16.7229      0.00000
     44      16.8149      0.00000
     45      17.8760      0.00000
     46      17.8918      0.00000
     47      17.9217      0.00000
     48      17.9417      0.00000


--------------------------------------------------------------------------------------------------------


 soft charge-density along one line, spin component           1
         0         1         2         3         4         5         6         7         8         9
 total charge-density along one line
 
 pseudopotential strength for first ion, spin component:           1
 18.662   0.000   0.000   0.000   0.000   0.000   0.000   0.000
  0.000   0.006   0.000   0.000   0.000   0.000   0.000   0.000
  0.000   0.000   4.216   0.000   0.000  -0.004   0.000   0.000
  0.000   0.000   0.000   4.216   0.000   0.000  -0.004   0.000
  0.000   0.000   0.000   0.000   4.216   0.000   0.000  -0.004
  0.000   0.000  -0.004   0.000   0.000   0.005   0.000   0.000
  0.000   0.000   0.000  -0.004   0.000   0.000   0.005   0.000
  0.000   0.000   0.000   0.000  -0.004   0.000   0.000   0.005
 total augmentation occupancy for first ion, spin component:           1
  2.000   0.000   0.000   0.000   0.000   0.000   0.000   0.000
  0.000   0.000   0.000   0.000   0.000   0.000   0.000   0.000
  0.000   0.000   0.667   0.000   0.000   0.000   0.000   0.000
  0.000   0.000   0.000   0.667   0.000   0.000   0.000   0.000
  0.000   0.000   0.000   0.000   0.667   0.000   0.000   0.000
  0.000   0.000   0.000   0.000   0.000   0.000   0.000   0.000
  0.000   0.000   0.000   0.000   0.000   0.000   0.000   0.000
  0.000   0.000   0.000   0.000   0.000   0.000   0.000   0.000


----------------------------------------- Iteration    1(   4)  ---------------------------------------


     EDDAV:  cpu time    2.01: real time    2.01
       DOS:  cpu time    0.00: real time    0.00
    --------------------------------------------
      LOOP:  cpu time    2.01: real time    2.02

 eigenvalue-minimisations  :   192
 total energy-change (2. order) :-0.3542213E-03  (-0.3542213E-03)
 number of electron      32.0000000 magnetization 
 augmentation part       32.0000000 magnetization 

 Free energy of the ion-electron system (eV)
  ---------------------------------------------------
  alpha Z        PSCENC =        12.68944982
  Ewald energy   TEWEN  =      -907.56621801
  -1/2 Hartree   DENC   =       -45.63652264
  -exchange  EXHF       =         0.00000000
  -V(xc)+E(xc)   XCENC  =       -76.79671113
  PAW double counting   =       265.93453375     -123.69690146
  entropy T*S    EENTRO =         0.00000000
  eigenvalues    EBANDS =        14.08088935
  atomic energy  EATOM  =       826.37398168
  ---------------------------------------------------
  free energy    TOTEN  =       -34.61749864 eV

  energy without entropy =      -34.61749864  energy(sigma->0) =      -34.61749864


--------------------------------------------------------------------------------------------------------




 average (electrostatic) potential at core
  the test charge radii are     0.9892
  (the norm of the test charge is              1.0000)
       1 -84.3532       2 -84.3492       3 -84.3439       4 -84.3544       5 -84.3530
       6 -84.3536       7 -84.3525       8 -84.3454
 
 
 
 E-fermi :   5.2037     XC(G=0):  -9.5533     alpha+bet :-11.7379


 k-point   1 :       0.0000    0.0000    0.0000
  band No.  band energies     occupation 
      1      -6.6372      2.00000
      2      -2.6481      2.00000
      3      -2.6410      2.00000
      4      -2.6355      2.00000
      5      -2.6323      2.00000
      6      -2.6187      2.00000
      7      -2.6127      2.00000
      8       2.3689      2.00000
      9       2.3711      2.00000
     10       2.3766      2.00000
     11       2.3780      2.00000
     12       2.3845      2.00000
     13       2.3869      2.00000
     14       5.0403      2.00000
     15       5.0759      2.00000
     16       5.0837      2.00000
     17       6.1369      0.00000
     18       6.1481      0.00000
     19       6.1493      0.00000
     20       6.1540      0.00000
     21       6.1642      0.00000
     22       6.1665      0.00000
     23       7.8399      0.00000
     24       7.8443      0.00000
     25       7.8642      0.00000
     26       8.1178      0.00000
     27      13.1837      0.00000
     28      13.1838      0.00000
     29      13.2693      0.00000
     30      15.0758      0.00000
     31      15.0801      0.00000
     32      15.0829      0.00000
     33      15.0864      0.00000
     34      15.0906      0.00000
     35      15.0930      0.00000
     36      16.2939      0.00000
     37      16.3012      0.00000
     38      16.3053      0.00000
     39      16.3154      0.00000
     40      16.3224      0.00000
     41      16.3233      0.00000
     42      16.6939      0.00000
     43      16.6987      0.00000
     44      16.7206      0.00000
     45      17.8631      0.00000
     46      17.8746      0.00000
     47      17.8808      0.00000
     48      17.8992      0.00000


--------------------------------------------------------------------------------------------------------


 soft charge-density along one line, spin component           1
         0         1         2         3         4         5         6         7         8         9
 total charge-density along one line
 
 pseudopotential strength for first ion, spin component:           1
 18.662   0.000   0.000   0.000   0.000   0.000   0.000   0.000
  0.000   0.006   0.000   0.000   0.000   0.000   0.000   0.000
  0.000   0.000   4.216   0.000   0.000  -0.004   0.000   0.000
  0.000   0.000   0.000   4.216   0.000   0.000  -0.004   0.000
  0.000   0.000   0.000   0.000   4.216   0.000   0.000  -0.004
  0.000   0.000  -0.004   0.000   0.000   0.005   0.000   0.000
  0.000   0.000   0.000  -0.004   0.000   0.000   0.005   0.000
  0.000   0.000   0.000   0.000  -0.004   0.000   0.000   0.005
 total augmentation occupancy for first ion, spin component:           1
  2.000   0.000   0.000   0.000   0.000   0.000   0.000   0.000
  0.000   0.000   0.000   0.000   0.000   0.000   0.000   0.000
  0.000   0.000   0.667   0.000   0.000   0.000   0.000   0.000
  0.000   0.000   0.000   0.667   0.000   0.000   0.000   0.000
  0.000   0.000   0.000   0.000   0.667   0.000   0.000   0.000
  0.000   0.000   0.000   0.000   0.000   0.000   0.000   0.000
  0.000   0.000   0.000   0.000   0.000   0.000   0.000   0.000
  0.000   0.000   0.000   0.000   0.000   0.000   0.000   0.000


----------------------------------------- Iteration    1(   5)  ---------------------------------------


     EDDAV:  cpu time    0.38: real time    0.38
       DOS:  cpu time    0.00: real time    0.00
    CHARGE:  cpu time    0.02: real time    0.02
    MIXING:  cpu time    0.00: real time    0.00
    --------------------------------------------
      LOOP:  cpu time    0.41: real time    0.41

 eigenvalue-minimisations  :    96
 total energy-change (2. order) :-0.3044761E-08  (-0.3046275E-08)
 number of electron      31.9999999 magnetization 
 augmentation part       -1.8053366 magnetization 

 Broyden mixing:
  rms(total) = 0.79306E+00    rms(broyden)= 0.79301E+00
  rms(prec ) = 0.15229E+01
  weight for this iteration     100.00

 Free energy of the ion-electron system (eV)
  ---------------------------------------------------
  alpha Z        PSCENC =        12.68944982
  Ewald energy   TEWEN  =      -907.56621801
  -1/2 Hartree   DENC   =       -45.63652264
  -exchange  EXHF       =         0.00000000
  -V(xc)+E(xc)   XCENC  =       -76.79671113
  PAW double counting   =       265.93453375     -123.69690146
  entropy T*S    EENTRO =         0.00000000
  eigenvalues    EBANDS =        14.08088935
  atomic energy  EATOM  =       826.37398168
  ---------------------------------------------------
  free energy    TOTEN  =       -34.61749864 eV

  energy without entropy =      -34.61749864  energy(sigma->0) =      -34.61749864


--------------------------------------------------------------------------------------------------------




 average (electrostatic) potential at core
  the test charge radii are     0.9892
  (the norm of the test charge is              1.0000)
       1 -84.3532       2 -84.3492       3 -84.3439       4 -84.3544       5 -84.3530
       6 -84.3536       7 -84.3525       8 -84.3454
 
 
 
 E-fermi :   5.1997     XC(G=0):  -9.5533     alpha+bet :-11.7379


 k-point   1 :       0.0000    0.0000    0.0000
  band No.  band energies     occupation 
      1      -6.6372      2.00000
      2      -2.6481      2.00000
      3      -2.6410      2.00000
      4      -2.6355      2.00000
      5      -2.6323      2.00000
      6      -2.6187      2.00000
      7      -2.6127      2.00000
      8       2.3689      2.00000
      9       2.3711      2.00000
     10       2.3766      2.00000
     11       2.3780      2.00000
     12       2.3845      2.00000
     13       2.3869      2.00000
     14       5.0403      2.00000
     15       5.0759      2.00000
     16       5.0837      2.00000
     17       6.1369      0.00000
     18       6.1481      0.00000
     19       6.1493      0.00000
     20       6.1540      0.00000
     21       6.1642      0.00000
     22       6.1665      0.00000
     23       7.8399      0.00000
     24       7.8443      0.00000
     25       7.8642      0.00000
     26       8.1178      0.00000
     27      13.1837      0.00000
     28      13.1838      0.00000
     29      13.2693      0.00000
     30      15.0757      0.00000
     31      15.0800      0.00000
     32      15.0829      0.00000
     33      15.0863      0.00000
     34      15.0905      0.00000
     35      15.0929      0.00000
     36      16.2936      0.00000
     37      16.3010      0.00000
     38      16.3048      0.00000
     39      16.3151      0.00000
     40      16.3221      0.00000
     41      16.3231      0.00000
     42      16.6937      0.00000
     43      16.6986      0.00000
     44      16.7206      0.00000
     45      17.8600      0.00000
     46      17.8679      0.00000
     47      17.8712      0.00000
     48      17.8911      0.00000


--------------------------------------------------------------------------------------------------------


 soft charge-density along one line, spin component           1
         0         1         2         3         4         5         6         7         8         9
 total charge-density along one line
 
 pseudopotential strength for first ion, spin component:           1
 18.662   0.000   0.000   0.000   0.000   0.000   0.000   0.000
  0.000   0.006   0.000   0.000   0.000   0.000   0.000   0.000
  0.000   0.000   4.216   0.000   0.000  -0.004   0.000   0.000
  0.000   0.000   0.000   4.216   0.000   0.000  -0.004   0.000
  0.000   0.000   0.000   0.000   4.216   0.000   0.000  -0.004
  0.000   0.000  -0.004   0.000   0.000   0.005   0.000   0.000
  0.000   0.000   0.000  -0.004   0.000   0.000   0.005   0.000
  0.000   0.000   0.000   0.000  -0.004   0.000   0.000   0.005
 total augmentation occupancy for first ion, spin component:           1
  1.380  -1.053   0.001  -0.001  -0.002  -0.001   0.002   0.002
 -1.053   0.920  -0.001   0.002   0.001   0.001  -0.002  -0.003
  0.001  -0.001   1.164  -0.002  -0.001  -0.758   0.003   0.002
 -0.001   0.002  -0.002   1.167   0.001   0.003  -0.760  -0.001
 -0.002   0.001  -0.001   0.001   1.164   0.002  -0.001  -0.758
 -0.001   0.001  -0.758   0.003   0.002   0.570  -0.004  -0.002
  0.002  -0.002   0.003  -0.760  -0.001  -0.004   0.572   0.001
  0.002  -0.003   0.002  -0.001  -0.758  -0.002   0.001   0.570


----------------------------------------- Iteration    1(   6)  ---------------------------------------


    POTLOK:  cpu time    0.04: real time    0.04
    SETDIJ:  cpu time    0.02: real time    0.03
    EDDIAG:  cpu time    0.05: real time    0.05
  RMM-DIIS:  cpu time    0.03: real time    0.03
    ORTHCH:  cpu time    0.01: real time    0.01
       DOS:  cpu time    0.00: real time    0.00
    CHARGE:  cpu time    0.02: real time    0.02
    MIXING:  cpu time    0.00: real time    0.00
    --------------------------------------------
      LOOP:  cpu time    0.18: real time    0.19

 eigenvalue-minimisations  :    96
 total energy-change (2. order) : 0.1001732E+01  (-0.3198547E-01)
 number of electron      31.9999999 magnetization 
 augmentation part       -1.7684074 magnetization 

 Broyden mixing:
  rms(total) = 0.47400E+00    rms(broyden)= 0.47400E+00
  rms(prec ) = 0.91067E+00
  weight for this iteration     100.00

 eigenvalues of (default mixing * dielectric matrix)
  average eigenvalue GAMMA=   2.4573
  2.4573

 Free energy of the ion-electron system (eV)
  ---------------------------------------------------
  alpha Z        PSCENC =        12.68944982
  Ewald energy   TEWEN  =      -907.56621801
  -1/2 Hartree   DENC   =       -54.68310205
  -exchange  EXHF       =         0.00000000
  -V(xc)+E(xc)   XCENC  =       -75.44939971
  PAW double counting   =       286.06092543     -144.35924127
  entropy T*S    EENTRO =         0.00000000
  eigenvalues    EBANDS =        23.31783774
  atomic energy  EATOM  =       826.37398168
  ---------------------------------------------------
  free energy    TOTEN  =       -33.61576637 eV

  energy without entropy =      -33.61576637  energy(sigma->0) =      -33.61576637


--------------------------------------------------------------------------------------------------------




 average (electrostatic) potential at core
  the test charge radii are     0.9892
  (the norm of the test charge is              1.0000)
       1 -83.8341       2 -83.8322       3 -83.8295       4 -83.8347       5 -83.8340
       6 -83.8342       7 -83.8338       8 -83.8303
 
 
 
 E-fermi :   5.5627     XC(G=0):  -9.4504     alpha+bet :-11.7379


 k-point   1 :       0.0000    0.0000    0.0000
  band No.  band energies     occupation 
      1      -6.3788      2.00000
      2      -2.3480      2.00000
      3      -2.3417      2.00000
      4      -2.3367      2.00000
      5      -2.3322      2.00000
      6      -2.3208      2.00000
      7      -2.3154      2.00000
      8       2.6308      2.00000
      9       2.6326      2.00000
     10       2.6377      2.00000
     11       2.6391      2.00000
     12       2.6451      2.00000
     13       2.6471      2.00000
     14       5.3743      2.00000
     15       5.4091      2.00000
     16       5.4168      2.00000
     17       6.2524      0.00000
     18       6.2627      0.00000
     19       6.2645      0.00000
     20       6.2677      0.00000
     21       6.2782      0.00000
     22       6.2801      0.00000
     23       8.0472      0.00000
     24       8.0516      0.00000
     25       8.0718      0.00000
     26       8.4862      0.00000
     27      13.3050      0.00000
     28      13.3569      0.00000
     29      13.3569      0.00000
     30      15.3723      0.00000
     31      15.3761      0.00000
     32      15.3792      0.00000
     33      15.3826      0.00000
     34      15.3864      0.00000
     35      15.3888      0.00000
     36      16.5309      0.00000
     37      16.5375      0.00000
     38      16.5410      0.00000
     39      16.5506      0.00000
     40      16.5569      0.00000
     41      16.5578      0.00000
     42      16.7381      0.00000
     43      16.7431      0.00000
     44      16.7655      0.00000
     45      18.1501      0.00000
     46      18.1563      0.00000
     47      18.1607      0.00000
     48      18.1796      0.00000


--------------------------------------------------------------------------------------------------------


 soft charge-density along one line, spin component           1
         0         1         2         3         4         5         6         7         8         9
 total charge-density along one line
 
 pseudopotential strength for first ion, spin component:           1
 18.635  -0.001   0.000   0.000   0.000   0.000   0.000   0.000
 -0.001   0.006   0.000   0.000   0.000   0.000   0.000   0.000
  0.000   0.000   4.221   0.000   0.000  -0.004   0.000   0.000
  0.000   0.000   0.000   4.221   0.000   0.000  -0.004   0.000
  0.000   0.000   0.000   0.000   4.221   0.000   0.000  -0.004
  0.000   0.000  -0.004   0.000   0.000   0.005   0.000   0.000
  0.000   0.000   0.000  -0.004   0.000   0.000   0.005   0.000
  0.000   0.000   0.000   0.000  -0.004   0.000   0.000   0.005
 total augmentation occupancy for first ion, spin component:           1
  1.351  -1.091   0.001  -0.001  -0.002  -0.001   0.002   0.003
 -1.091   0.999   0.000   0.002   0.001   0.001  -0.002  -0.003
  0.001   0.000   1.146  -0.002  -0.001  -0.782   0.003   0.002
 -0.001   0.002  -0.002   1.149   0.001   0.004  -0.784  -0.001
 -0.002   0.001  -0.001   0.001   1.146   0.002  -0.001  -0.782
 -0.001   0.001  -0.782   0.004   0.002   0.608  -0.004  -0.002
  0.002  -0.002   0.003  -0.784  -0.001  -0.004   0.610   0.001
  0.003  -0.003   0.002  -0.001  -0.782  -0.002   0.001   0.608


----------------------------------------- Iteration    1(   7)  ---------------------------------------


    POTLOK:  cpu time    0.02: real time    0.02
    SETDIJ:  cpu time    0.02: real time    0.02
    EDDIAG:  cpu time    0.02: real time    0.02
  RMM-DIIS:  cpu time    0.02: real time    0.02
    ORTHCH:  cpu time    0.00: real time    0.01
       DOS:  cpu time    0.00: real time    0.00
    CHARGE:  cpu time    0.02: real time    0.02
    MIXING:  cpu time    0.00: real time    0.00
    --------------------------------------------
      LOOP:  cpu time    0.11: real time    0.12

 eigenvalue-minimisations  :    96
 total energy-change (2. order) : 0.4246823E+00  (-0.7389455E-01)
 number of electron      31.9999999 magnetization 
 augmentation part       -1.7214528 magnetization 

 Broyden mixing:
  rms(total) = 0.46243E-01    rms(broyden)= 0.46233E-01
  rms(prec ) = 0.78441E-01
  weight for this iteration     100.00

 eigenvalues of (default mixing * dielectric matrix)
  average eigenvalue GAMMA=   2.5301
  2.5301  2.5301

 Free energy of the ion-electron system (eV)
  ---------------------------------------------------
  alpha Z        PSCENC =        12.68944982
  Ewald energy   TEWEN  =      -907.56621801
  -1/2 Hartree   DENC   =       -70.51446500
  -exchange  EXHF       =         0.00000000
  -V(xc)+E(xc)   XCENC  =       -73.00920756
  PAW double counting   =       313.72575290     -172.73779646
  entropy T*S    EENTRO =         0.00000000
  eigenvalues    EBANDS =        37.84741859
  atomic energy  EATOM  =       826.37398168
  ---------------------------------------------------
  free energy    TOTEN  =       -33.19108404 eV

  energy without entropy =      -33.19108404  energy(sigma->0) =      -33.19108404


--------------------------------------------------------------------------------------------------------




 average (electrostatic) potential at core
  the test charge radii are     0.9892
  (the norm of the test charge is              1.0000)
       1 -83.1463       2 -83.1449       3 -83.1436       4 -83.1466       5 -83.1459
       6 -83.1468       7 -83.1458       8 -83.1441
 
 
 
 E-fermi :   6.0989     XC(G=0):  -9.2018     alpha+bet :-11.7379


 k-point   1 :       0.0000    0.0000    0.0000
  band No.  band energies     occupation 
      1      -5.9621      2.00000
      2      -1.8805      2.00000
      3      -1.8750      2.00000
      4      -1.8704      2.00000
      5      -1.8647      2.00000
      6      -1.8552      2.00000
      7      -1.8502      2.00000
      8       3.0441      2.00000
      9       3.0456      2.00000
     10       3.0508      2.00000
     11       3.0514      2.00000
     12       3.0573      2.00000
     13       3.0587      2.00000
     14       5.8996      2.00000
     15       5.9335      2.00000
     16       5.9410      2.00000
     17       6.5121      0.00000
     18       6.5207      0.00000
     19       6.5241      0.00000
     20       6.5253      0.00000
     21       6.5361      0.00000
     22       6.5376      0.00000
     23       8.3721      0.00000
     24       8.3766      0.00000
     25       8.3972      0.00000
     26       9.0452      0.00000
     27      13.6013      0.00000
     28      13.6204      0.00000
     29      13.6205      0.00000
     30      15.8227      0.00000
     31      15.8262      0.00000
     32      15.8297      0.00000
     33      15.8323      0.00000
     34      15.8361      0.00000
     35      15.8383      0.00000
     36      16.8925      0.00000
     37      16.8974      0.00000
     38      16.9191      0.00000
     39      16.9522      0.00000
     40      16.9579      0.00000
     41      16.9609      0.00000
     42      16.9696      0.00000
     43      16.9755      0.00000
     44      16.9760      0.00000
     45      18.6498      0.00000
     46      18.6559      0.00000
     47      18.6615      0.00000
     48      18.6795      0.00000


--------------------------------------------------------------------------------------------------------


 soft charge-density along one line, spin component           1
         0         1         2         3         4         5         6         7         8         9
 total charge-density along one line
 
 pseudopotential strength for first ion, spin component:           1
 18.597  -0.001   0.000   0.000   0.000   0.000   0.000   0.000
 -0.001   0.006   0.000   0.000   0.000   0.000   0.000   0.000
  0.000   0.000   4.227   0.000   0.000  -0.005   0.000   0.000
  0.000   0.000   0.000   4.227   0.000   0.000  -0.005   0.000
  0.000   0.000   0.000   0.000   4.227   0.000   0.000  -0.005
  0.000   0.000  -0.005   0.000   0.000   0.005   0.000   0.000
  0.000   0.000   0.000  -0.005   0.000   0.000   0.005   0.000
  0.000   0.000   0.000   0.000  -0.005   0.000   0.000   0.005
 total augmentation occupancy for first ion, spin component:           1
  1.315  -1.113   0.001  -0.001  -0.003  -0.002   0.003   0.003
 -1.113   1.060   0.000   0.001   0.001   0.001  -0.003  -0.003
  0.001   0.000   1.121  -0.002  -0.001  -0.805   0.003   0.002
 -0.001   0.001  -0.002   1.124   0.001   0.004  -0.807  -0.001
 -0.003   0.001  -0.001   0.001   1.121   0.002  -0.001  -0.805
 -0.002   0.001  -0.805   0.004   0.002   0.652  -0.004  -0.002
  0.003  -0.003   0.003  -0.807  -0.001  -0.004   0.653   0.001
  0.003  -0.003   0.002  -0.001  -0.805  -0.002   0.001   0.652


----------------------------------------- Iteration    1(   8)  ---------------------------------------


    POTLOK:  cpu time    0.02: real time    0.02
    SETDIJ:  cpu time    0.02: real time    0.02
    EDDIAG:  cpu time    0.02: real time    0.02
  RMM-DIIS:  cpu time    0.03: real time    0.03
    ORTHCH:  cpu time    0.01: real time    0.01
       DOS:  cpu time    0.00: real time    0.00
    CHARGE:  cpu time    0.02: real time    0.02
    MIXING:  cpu time    0.00: real time    0.00
    --------------------------------------------
      LOOP:  cpu time    0.12: real time    0.12

 eigenvalue-minimisations  :    96
 total energy-change (2. order) :-0.3198519E-01  (-0.2161962E-02)
 number of electron      31.9999999 magnetization 
 augmentation part       -1.7275459 magnetization 

 Broyden mixing:
  rms(total) = 0.74783E-02    rms(broyden)= 0.74778E-02
  rms(prec ) = 0.17931E-01
  weight for this iteration     100.00

 eigenvalues of (default mixing * dielectric matrix)
  average eigenvalue GAMMA=   2.1221
  1.2765  2.8662  2.2237

 Free energy of the ion-electron system (eV)
  ---------------------------------------------------
  alpha Z        PSCENC =        12.68944982
  Ewald energy   TEWEN  =      -907.56621801
  -1/2 Hartree   DENC   =       -70.39975524
  -exchange  EXHF       =         0.00000000
  -V(xc)+E(xc)   XCENC  =       -72.96560483
  PAW double counting   =       307.36393022     -166.19117617
  entropy T*S    EENTRO =         0.00000000
  eigenvalues    EBANDS =        37.47232330
  atomic energy  EATOM  =       826.37398168
  ---------------------------------------------------
  free energy    TOTEN  =       -33.22306923 eV

  energy without entropy =      -33.22306923  energy(sigma->0) =      -33.22306923


--------------------------------------------------------------------------------------------------------




 average (electrostatic) potential at core
  the test charge radii are     0.9892
  (the norm of the test charge is              1.0000)
       1 -83.2504       2 -83.2474       3 -83.2435       4 -83.2512       5 -83.2500
       6 -83.2508       7 -83.2498       8 -83.2446
 
 
 
 E-fermi :   6.0378     XC(G=0):  -9.1504     alpha+bet :-11.7379


 k-point   1 :       0.0000    0.0000    0.0000
  band No.  band energies     occupation 
      1      -5.9632      2.00000
      2      -1.8927      2.00000
      3      -1.8868      2.00000
      4      -1.8818      2.00000
      5      -1.8769      2.00000
      6      -1.8662      2.00000
      7      -1.8609      2.00000
      8       3.0323      2.00000
      9       3.0339      2.00000
     10       3.0395      2.00000
     11       3.0397      2.00000
     12       3.0460      2.00000
     13       3.0476      2.00000
     14       5.8833      2.00000
     15       5.9174      2.00000
     16       5.9249      2.00000
     17       6.5626      0.00000
     18       6.5715      0.00000
     19       6.5747      0.00000
     20       6.5764      0.00000
     21       6.5872      0.00000
     22       6.5889      0.00000
     23       8.3615      0.00000
     24       8.3660      0.00000
     25       8.3865      0.00000
     26       9.0381      0.00000
     27      13.6064      0.00000
     28      13.6065      0.00000
     29      13.7784      0.00000
     30      15.8079      0.00000
     31      15.8118      0.00000
     32      15.8154      0.00000
     33      15.8174      0.00000
     34      15.8213      0.00000
     35      15.8236      0.00000
     36      16.9292      0.00000
     37      16.9341      0.00000
     38      16.9542      0.00000
     39      16.9586      0.00000
     40      16.9645      0.00000
     41      16.9675      0.00000
     42      16.9764      0.00000
     43      16.9824      0.00000
     44      16.9838      0.00000
     45      18.6865      0.00000
     46      18.6936      0.00000
     47      18.6990      0.00000
     48      18.7176      0.00000


--------------------------------------------------------------------------------------------------------


 soft charge-density along one line, spin component           1
         0         1         2         3         4         5         6         7         8         9
 total charge-density along one line
 
 pseudopotential strength for first ion, spin component:           1
 18.599  -0.001   0.000   0.000   0.000   0.000   0.000   0.000
 -0.001   0.006   0.000   0.000   0.000   0.000   0.000   0.000
  0.000   0.000   4.224   0.000   0.000  -0.005   0.000   0.000
  0.000   0.000   0.000   4.224   0.000   0.000  -0.005   0.000
  0.000   0.000   0.000   0.000   4.224   0.000   0.000  -0.005
  0.000   0.000  -0.005   0.000   0.000   0.005   0.000   0.000
  0.000   0.000   0.000  -0.005   0.000   0.000   0.005   0.000
  0.000   0.000   0.000   0.000  -0.005   0.000   0.000   0.005
 total augmentation occupancy for first ion, spin component:           1
  1.320  -1.093   0.001  -0.001  -0.003  -0.001   0.002   0.003
 -1.093   1.022   0.000   0.002   0.001   0.001  -0.002  -0.003
  0.001   0.000   1.122  -0.002  -0.001  -0.801   0.003   0.002
 -0.001   0.002  -0.002   1.125   0.001   0.004  -0.803  -0.001
 -0.003   0.001  -0.001   0.001   1.122   0.002  -0.001  -0.801
 -0.001   0.001  -0.801   0.004   0.002   0.647  -0.004  -0.002
  0.002  -0.002   0.003  -0.803  -0.001  -0.004   0.649   0.001
  0.003  -0.003   0.002  -0.001  -0.801  -0.002   0.001   0.647


----------------------------------------- Iteration    1(   9)  ---------------------------------------


    POTLOK:  cpu time    0.02: real time    0.02
    SETDIJ:  cpu time    0.02: real time    0.02
    EDDIAG:  cpu time    0.02: real time    0.02
  RMM-DIIS:  cpu time    0.03: real time    0.03
    ORTHCH:  cpu time    0.01: real time    0.01
       DOS:  cpu time    0.00: real time    0.00
    CHARGE:  cpu time    0.02: real time    0.02
    MIXING:  cpu time    0.00: real time    0.00
    --------------------------------------------
      LOOP:  cpu time    0.12: real time    0.12

 eigenvalue-minimisations  :   105
 total energy-change (2. order) :-0.1133330E-02  (-0.1265260E-03)
 number of electron      31.9999999 magnetization 
 augmentation part       -1.7274627 magnetization 

 Broyden mixing:
  rms(total) = 0.41716E-02    rms(broyden)= 0.41715E-02
  rms(prec ) = 0.68324E-02
  weight for this iteration     100.00

 eigenvalues of (default mixing * dielectric matrix)
  average eigenvalue GAMMA=   2.3060
  0.9893  3.2576  2.6902  2.2870

 Free energy of the ion-electron system (eV)
  ---------------------------------------------------
  alpha Z        PSCENC =        12.68944982
  Ewald energy   TEWEN  =      -907.56621801
  -1/2 Hartree   DENC   =       -70.79658604
  -exchange  EXHF       =         0.00000000
  -V(xc)+E(xc)   XCENC  =       -72.90634686
  PAW double counting   =       307.71523466     -166.55290002
  entropy T*S    EENTRO =         0.00000000
  eigenvalues    EBANDS =        37.81918220
  atomic energy  EATOM  =       826.37398168
  ---------------------------------------------------
  free energy    TOTEN  =       -33.22420256 eV

  energy without entropy =      -33.22420256  energy(sigma->0) =      -33.22420256


--------------------------------------------------------------------------------------------------------




 average (electrostatic) potential at core
  the test charge radii are     0.9892
  (the norm of the test charge is              1.0000)
       1 -83.2357       2 -83.2335       3 -83.2303       4 -83.2363       5 -83.2355
       6 -83.2357       7 -83.2353       8 -83.2312
 
 
 
 E-fermi :   6.0525     XC(G=0):  -9.1362     alpha+bet :-11.7379


 k-point   1 :       0.0000    0.0000    0.0000
  band No.  band energies     occupation 
      1      -5.9519      2.00000
      2      -1.8813      2.00000
      3      -1.8756      2.00000
      4      -1.8706      2.00000
      5      -1.8656      2.00000
      6      -1.8553      2.00000
      7      -1.8500      2.00000
      8       3.0423      2.00000
      9       3.0438      2.00000
     10       3.0492      2.00000
     11       3.0496      2.00000
     12       3.0557      2.00000
     13       3.0573      2.00000
     14       5.8955      2.00000
     15       5.9295      2.00000
     16       5.9370      2.00000
     17       6.5766      0.00000
     18       6.5856      0.00000
     19       6.5887      0.00000
     20       6.5905      0.00000
     21       6.6013      0.00000
     22       6.6030      0.00000
     23       8.3692      0.00000
     24       8.3737      0.00000
     25       8.3941      0.00000
     26       9.0526      0.00000
     27      13.6117      0.00000
     28      13.6117      0.00000
     29      13.8106      0.00000
     30      15.8185      0.00000
     31      15.8222      0.00000
     32      15.8257      0.00000
     33      15.8281      0.00000
     34      15.8319      0.00000
     35      15.8342      0.00000
     36      16.9393      0.00000
     37      16.9441      0.00000
     38      16.9644      0.00000
     39      16.9708      0.00000
     40      16.9766      0.00000
     41      16.9795      0.00000
     42      16.9885      0.00000
     43      16.9944      0.00000
     44      16.9957      0.00000
     45      18.7041      0.00000
     46      18.7116      0.00000
     47      18.7173      0.00000
     48      18.7358      0.00000


--------------------------------------------------------------------------------------------------------


 soft charge-density along one line, spin component           1
         0         1         2         3         4         5         6         7         8         9
 total charge-density along one line
 
 pseudopotential strength for first ion, spin component:           1
 18.598  -0.001   0.000   0.000   0.000   0.000   0.000   0.000
 -0.001   0.006   0.000   0.000   0.000   0.000   0.000   0.000
  0.000   0.000   4.224   0.000   0.000  -0.005   0.000   0.000
  0.000   0.000   0.000   4.224   0.000   0.000  -0.005   0.000
  0.000   0.000   0.000   0.000   4.224   0.000   0.000  -0.005
  0.000   0.000  -0.005   0.000   0.000   0.005   0.000   0.000
  0.000   0.000   0.000  -0.005   0.000   0.000   0.005   0.000
  0.000   0.000   0.000   0.000  -0.005   0.000   0.000   0.005
 total augmentation occupancy for first ion, spin component:           1
  1.320  -1.088   0.001  -0.001  -0.003  -0.001   0.002   0.003
 -1.088   1.014   0.000   0.002   0.001   0.001  -0.002  -0.003
  0.001   0.000   1.122  -0.002  -0.001  -0.800   0.003   0.002
 -0.001   0.002  -0.002   1.125   0.001   0.004  -0.803  -0.001
 -0.003   0.001  -0.001   0.001   1.122   0.002  -0.001  -0.800
 -0.001   0.001  -0.800   0.004   0.002   0.647  -0.004  -0.002
  0.002  -0.002   0.003  -0.803  -0.001  -0.004   0.649   0.001
  0.003  -0.003   0.002  -0.001  -0.800  -0.002   0.001   0.647


----------------------------------------- Iteration    1(  10)  ---------------------------------------


    POTLOK:  cpu time    0.02: real time    0.02
    SETDIJ:  cpu time    0.02: real time    0.02
    EDDIAG:  cpu time    0.02: real time    0.02
  RMM-DIIS:  cpu time    0.02: real time    0.02
    ORTHCH:  cpu time    0.01: real time    0.01
       DOS:  cpu time    0.00: real time    0.00
    CHARGE:  cpu time    0.02: real time    0.02
    MIXING:  cpu time    0.00: real time    0.00
    --------------------------------------------
      LOOP:  cpu time    0.12: real time    0.12

 eigenvalue-minimisations  :   104
 total energy-change (2. order) :-0.1832898E-03  (-0.2456297E-04)
 number of electron      31.9999999 magnetization 
 augmentation part       -1.7273361 magnetization 

 Broyden mixing:
  rms(total) = 0.49097E-03    rms(broyden)= 0.49056E-03
  rms(prec ) = 0.96438E-03
  weight for this iteration     100.00

 eigenvalues of (default mixing * dielectric matrix)
  average eigenvalue GAMMA=   2.0363
  3.0947  2.6297  2.1691  0.9765  1.3117

 Free energy of the ion-electron system (eV)
  ---------------------------------------------------
  alpha Z        PSCENC =        12.68944982
  Ewald energy   TEWEN  =      -907.56621801
  -1/2 Hartree   DENC   =       -70.84883078
  -exchange  EXHF       =         0.00000000
  -V(xc)+E(xc)   XCENC  =       -72.90955985
  PAW double counting   =       307.80644039     -166.65043916
  entropy T*S    EENTRO =         0.00000000
  eigenvalues    EBANDS =        37.88079005
  atomic energy  EATOM  =       826.37398168
  ---------------------------------------------------
  free energy    TOTEN  =       -33.22438585 eV

  energy without entropy =      -33.22438585  energy(sigma->0) =      -33.22438585


--------------------------------------------------------------------------------------------------------




 average (electrostatic) potential at core
  the test charge radii are     0.9892
  (the norm of the test charge is              1.0000)
       1 -83.2266       2 -83.2249       3 -83.2226       4 -83.2271       5 -83.2264
       6 -83.2266       7 -83.2263       8 -83.2232
 
 
 
 E-fermi :   6.0572     XC(G=0):  -9.1306     alpha+bet :-11.7379


 k-point   1 :       0.0000    0.0000    0.0000
  band No.  band energies     occupation 
      1      -5.9495      2.00000
      2      -1.8791      2.00000
      3      -1.8735      2.00000
      4      -1.8687      2.00000
      5      -1.8634      2.00000
      6      -1.8534      2.00000
      7      -1.8483      2.00000
      8       3.0441      2.00000
      9       3.0455      2.00000
     10       3.0508      2.00000
     11       3.0514      2.00000
     12       3.0573      2.00000
     13       3.0589      2.00000
     14       5.8977      2.00000
     15       5.9316      2.00000
     16       5.9391      2.00000
     17       6.5819      0.00000
     18       6.5909      0.00000
     19       6.5940      0.00000
     20       6.5959      0.00000
     21       6.6066      0.00000
     22       6.6083      0.00000
     23       8.3701      0.00000
     24       8.3746      0.00000
     25       8.3950      0.00000
     26       9.0563      0.00000
     27      13.6117      0.00000
     28      13.6118      0.00000
     29      13.8266      0.00000
     30      15.8203      0.00000
     31      15.8240      0.00000
     32      15.8274      0.00000
     33      15.8300      0.00000
     34      15.8338      0.00000
     35      15.8360      0.00000
     36      16.9433      0.00000
     37      16.9482      0.00000
     38      16.9682      0.00000
     39      16.9736      0.00000
     40      16.9794      0.00000
     41      16.9823      0.00000
     42      16.9911      0.00000
     43      16.9969      0.00000
     44      16.9984      0.00000
     45      18.7115      0.00000
     46      18.7186      0.00000
     47      18.7242      0.00000
     48      18.7429      0.00000


--------------------------------------------------------------------------------------------------------


 soft charge-density along one line, spin component           1
         0         1         2         3         4         5         6         7         8         9
 total charge-density along one line
 
 pseudopotential strength for first ion, spin component:           1
 18.597  -0.001   0.000   0.000   0.000   0.000   0.000   0.000
 -0.001   0.006   0.000   0.000   0.000   0.000   0.000   0.000
  0.000   0.000   4.224   0.000   0.000  -0.005   0.000   0.000
  0.000   0.000   0.000   4.224   0.000   0.000  -0.005   0.000
  0.000   0.000   0.000   0.000   4.224   0.000   0.000  -0.005
  0.000   0.000  -0.005   0.000   0.000   0.005   0.000   0.000
  0.000   0.000   0.000  -0.005   0.000   0.000   0.005   0.000
  0.000   0.000   0.000   0.000  -0.005   0.000   0.000   0.005
 total augmentation occupancy for first ion, spin component:           1
  1.320  -1.088   0.001  -0.001  -0.003  -0.001   0.002   0.003
 -1.088   1.014   0.000   0.002   0.001   0.001  -0.002  -0.003
  0.001   0.000   1.122  -0.002  -0.001  -0.801   0.003   0.002
 -0.001   0.002  -0.002   1.125   0.001   0.004  -0.803  -0.001
 -0.003   0.001  -0.001   0.001   1.122   0.002  -0.001  -0.801
 -0.001   0.001  -0.801   0.004   0.002   0.648  -0.004  -0.002
  0.002  -0.002   0.003  -0.803  -0.001  -0.004   0.650   0.001
  0.003  -0.003   0.002  -0.001  -0.801  -0.002   0.001   0.648


----------------------------------------- Iteration    1(  11)  ---------------------------------------


    POTLOK:  cpu time    0.02: real time    0.02
    SETDIJ:  cpu time    0.02: real time    0.02
    EDDIAG:  cpu time    0.02: real time    0.02
  RMM-DIIS:  cpu time    0.03: real time    0.04
    ORTHCH:  cpu time    0.00: real time    0.01
       DOS:  cpu time    0.00: real time    0.00
    CHARGE:  cpu time    0.02: real time    0.02
    MIXING:  cpu time    0.00: real time    0.00
    --------------------------------------------
      LOOP:  cpu time    0.13: real time    0.13

 eigenvalue-minimisations  :   116
 total energy-change (2. order) : 0.4331348E-05  (-0.3513903E-06)
 number of electron      31.9999999 magnetization 
 augmentation part       -1.7274406 magnetization 

 Broyden mixing:
  rms(total) = 0.15371E-03    rms(broyden)= 0.15366E-03
  rms(prec ) = 0.29909E-03
  weight for this iteration     100.00

 eigenvalues of (default mixing * dielectric matrix)
  average eigenvalue GAMMA=   1.9625
  3.2050  2.7014  2.1538  1.7785  0.9681  0.9681

 Free energy of the ion-electron system (eV)
  ---------------------------------------------------
  alpha Z        PSCENC =        12.68944982
  Ewald energy   TEWEN  =      -907.56621801
  -1/2 Hartree   DENC   =       -70.82865942
  -exchange  EXHF       =         0.00000000
  -V(xc)+E(xc)   XCENC  =       -72.91085353
  PAW double counting   =       307.73544629     -166.57665290
  entropy T*S    EENTRO =         0.00000000
  eigenvalues    EBANDS =        37.85912455
  atomic energy  EATOM  =       826.37398168
  ---------------------------------------------------
  free energy    TOTEN  =       -33.22438152 eV

  energy without entropy =      -33.22438152  energy(sigma->0) =      -33.22438152


--------------------------------------------------------------------------------------------------------




 average (electrostatic) potential at core
  the test charge radii are     0.9892
  (the norm of the test charge is              1.0000)
       1 -83.2291       2 -83.2271       3 -83.2242       4 -83.2297       5 -83.2289
       6 -83.2292       7 -83.2287       8 -83.2250
 
 
 
 E-fermi :   6.0568     XC(G=0):  -9.1314     alpha+bet :-11.7379


 k-point   1 :       0.0000    0.0000    0.0000
  band No.  band energies     occupation 
      1      -5.9502      2.00000
      2      -1.8799      2.00000
      3      -1.8742      2.00000
      4      -1.8693      2.00000
      5      -1.8642      2.00000
      6      -1.8540      2.00000
      7      -1.8488      2.00000
      8       3.0434      2.00000
      9       3.0449      2.00000
     10       3.0503      2.00000
     11       3.0507      2.00000
     12       3.0567      2.00000
     13       3.0583      2.00000
     14       5.8969      2.00000
     15       5.9308      2.00000
     16       5.9383      2.00000
     17       6.5811      0.00000
     18       6.5902      0.00000
     19       6.5933      0.00000
     20       6.5951      0.00000
     21       6.6058      0.00000
     22       6.6075      0.00000
     23       8.3697      0.00000
     24       8.3742      0.00000
     25       8.3946      0.00000
     26       9.0553      0.00000
     27      13.6114      0.00000
     28      13.6115      0.00000
     29      13.8249      0.00000
     30      15.8196      0.00000
     31      15.8233      0.00000
     32      15.8268      0.00000
     33      15.8292      0.00000
     34      15.8330      0.00000
     35      15.8353      0.00000
     36      16.9428      0.00000
     37      16.9476      0.00000
     38      16.9677      0.00000
     39      16.9729      0.00000
     40      16.9787      0.00000
     41      16.9816      0.00000
     42      16.9905      0.00000
     43      16.9963      0.00000
     44      16.9978      0.00000
     45      18.7119      0.00000
     46      18.7187      0.00000
     47      18.7239      0.00000
     48      18.7429      0.00000


--------------------------------------------------------------------------------------------------------


 soft charge-density along one line, spin component           1
         0         1         2         3         4         5         6         7         8         9
 total charge-density along one line
 
 pseudopotential strength for first ion, spin component:           1
 18.598  -0.001   0.000   0.000   0.000   0.000   0.000   0.000
 -0.001   0.006   0.000   0.000   0.000   0.000   0.000   0.000
  0.000   0.000   4.224   0.000   0.000  -0.005   0.000   0.000
  0.000   0.000   0.000   4.224   0.000   0.000  -0.005   0.000
  0.000   0.000   0.000   0.000   4.224   0.000   0.000  -0.005
  0.000   0.000  -0.005   0.000   0.000   0.005   0.000   0.000
  0.000   0.000   0.000  -0.005   0.000   0.000   0.005   0.000
  0.000   0.000   0.000   0.000  -0.005   0.000   0.000   0.005
 total augmentation occupancy for first ion, spin component:           1
  1.320  -1.087   0.001  -0.001  -0.003  -0.001   0.002   0.003
 -1.087   1.013   0.000   0.002   0.001   0.001  -0.002  -0.003
  0.001   0.000   1.122  -0.002  -0.001  -0.801   0.003   0.002
 -0.001   0.002  -0.002   1.125   0.001   0.004  -0.803  -0.001
 -0.003   0.001  -0.001   0.001   1.122   0.002  -0.001  -0.801
 -0.001   0.001  -0.801   0.004   0.002   0.648  -0.004  -0.002
  0.002  -0.002   0.003  -0.803  -0.001  -0.004   0.650   0.001
  0.003  -0.003   0.002  -0.001  -0.801  -0.002   0.001   0.648


----------------------------------------- Iteration    1(  12)  ---------------------------------------


    POTLOK:  cpu time    0.02: real time    0.02
    SETDIJ:  cpu time    0.02: real time    0.02
    EDDIAG:  cpu time    0.02: real time    0.02
  RMM-DIIS:  cpu time    0.04: real time    0.04
    ORTHCH:  cpu time    0.01: real time    0.01
       DOS:  cpu time    0.00: real time    0.00
    CHARGE:  cpu time    0.02: real time    0.02
    MIXING:  cpu time    0.00: real time    0.00
    --------------------------------------------
      LOOP:  cpu time    0.13: real time    0.13

 eigenvalue-minimisations  :   126
 total energy-change (2. order) :-0.5931194E-06  (-0.4847448E-07)
 number of electron      31.9999999 magnetization 
 augmentation part       -1.7274281 magnetization 

 Broyden mixing:
  rms(total) = 0.59785E-04    rms(broyden)= 0.59756E-04
  rms(prec ) = 0.83925E-04
  weight for this iteration     100.00

 eigenvalues of (default mixing * dielectric matrix)
  average eigenvalue GAMMA=   1.9945
  3.1948  2.7348  2.4824  2.1133  1.4775  0.9957  0.9630

 Free energy of the ion-electron system (eV)
  ---------------------------------------------------
  alpha Z        PSCENC =        12.68944982
  Ewald energy   TEWEN  =      -907.56621801
  -1/2 Hartree   DENC   =       -70.83282966
  -exchange  EXHF       =         0.00000000
  -V(xc)+E(xc)   XCENC  =       -72.91078709
  PAW double counting   =       307.74217571     -166.58355203
  entropy T*S    EENTRO =         0.00000000
  eigenvalues    EBANDS =        37.86339748
  atomic energy  EATOM  =       826.37398168
  ---------------------------------------------------
  free energy    TOTEN  =       -33.22438211 eV

  energy without entropy =      -33.22438211  energy(sigma->0) =      -33.22438211


--------------------------------------------------------------------------------------------------------




 average (electrostatic) potential at core
  the test charge radii are     0.9892
  (the norm of the test charge is              1.0000)
       1 -83.2286       2 -83.2266       3 -83.2237       4 -83.2292       5 -83.2284
       6 -83.2288       7 -83.2283       8 -83.2245
 
 
 
 E-fermi :   6.0575     XC(G=0):  -9.1311     alpha+bet :-11.7379


 k-point   1 :       0.0000    0.0000    0.0000
  band No.  band energies     occupation 
      1      -5.9500      2.00000
      2      -1.8798      2.00000
      3      -1.8741      2.00000
      4      -1.8692      2.00000
      5      -1.8641      2.00000
      6      -1.8538      2.00000
      7      -1.8486      2.00000
      8       3.0435      2.00000
      9       3.0450      2.00000
     10       3.0504      2.00000
     11       3.0508      2.00000
     12       3.0568      2.00000
[...]
    MIXING:  cpu time    0.00: real time    0.00
    --------------------------------------------
      LOOP:  cpu time    0.15: real time    0.16

 Broyden mixing:
  rms(total) = 0.68250E-02    rms(broyden)= 0.68247E-02
  rms(prec ) = 0.11694E-01
  weight for this iteration     100.00

 eigenvalues of (default mixing * dielectric matrix)
  average eigenvalue GAMMA=   2.0756
  3.0303  2.4881  1.1291  1.6548

 Free energy of the ion-electron system (eV)
  ---------------------------------------------------
  -1/2 Hartree   DENC   =        -4.61469587
  -V(xc)+E(xc)   XCENC  =         0.94989006
  PAW double counting   =         3.10028735       -3.14964837
  entropy T*S    EENTRO =         0.00000000
  eigenvalues    EBANDS =       -24.52825102
  ---------------------------------------------------
  free energy    TOTEN  =       -28.24241785 eV

  energy without entropy =      -28.24241785


----------------------------------------- Iteration    3(   7)  ---------------------------------------


   POT+DIJ:  cpu time    0.08: real time    0.08
    HAMIL1:  cpu time    0.00: real time    0.01
    LRDIAG:  cpu time    0.01: real time    0.01
    LRDIIS:  cpu time    0.02: real time    0.02
    LRDIAG:  cpu time    0.01: real time    0.01
    MIXING:  cpu time    0.00: real time    0.00
    --------------------------------------------
      LOOP:  cpu time    0.15: real time    0.15

 Broyden mixing:
  rms(total) = 0.54829E-03    rms(broyden)= 0.54735E-03
  rms(prec ) = 0.10340E-02
  weight for this iteration     100.00

 eigenvalues of (default mixing * dielectric matrix)
  average eigenvalue GAMMA=   1.9534
  3.0880  2.4111  1.1193  1.6730  1.4753

 Free energy of the ion-electron system (eV)
  ---------------------------------------------------
  -1/2 Hartree   DENC   =        -4.62548225
  -V(xc)+E(xc)   XCENC  =         0.95718393
  PAW double counting   =         3.06449275       -3.11331683
  entropy T*S    EENTRO =         0.00000000
  eigenvalues    EBANDS =       -24.56327304
  ---------------------------------------------------
  free energy    TOTEN  =       -28.28039546 eV

  energy without entropy =      -28.28039546


----------------------------------------- Iteration    3(   8)  ---------------------------------------


   POT+DIJ:  cpu time    0.08: real time    0.08
    HAMIL1:  cpu time    0.00: real time    0.01
    LRDIAG:  cpu time    0.01: real time    0.01
    LRDIIS:  cpu time    0.02: real time    0.02
    LRDIAG:  cpu time    0.01: real time    0.01
    MIXING:  cpu time    0.00: real time    0.00
    --------------------------------------------
      LOOP:  cpu time    0.16: real time    0.16

 Broyden mixing:
  rms(total) = 0.27555E-03    rms(broyden)= 0.27547E-03
  rms(prec ) = 0.40538E-03
  weight for this iteration     100.00

 eigenvalues of (default mixing * dielectric matrix)
  average eigenvalue GAMMA=   1.9233
  3.0842  2.4988  2.0220  1.6705  1.1083  1.1559

 Free energy of the ion-electron system (eV)
  ---------------------------------------------------
  -1/2 Hartree   DENC   =        -4.62910351
  -V(xc)+E(xc)   XCENC  =         0.95813080
  PAW double counting   =         3.06849169       -3.11738277
  entropy T*S    EENTRO =         0.00000000
  eigenvalues    EBANDS =       -24.56429056
  ---------------------------------------------------
  free energy    TOTEN  =       -28.28415436 eV

  energy without entropy =      -28.28415436


----------------------------------------- Iteration    3(   9)  ---------------------------------------


   POT+DIJ:  cpu time    0.08: real time    0.08
    HAMIL1:  cpu time    0.00: real time    0.00
    LRDIAG:  cpu time    0.01: real time    0.01
    LRDIIS:  cpu time    0.02: real time    0.02
    LRDIAG:  cpu time    0.01: real time    0.01
    MIXING:  cpu time    0.00: real time    0.00
    --------------------------------------------
      LOOP:  cpu time    0.15: real time    0.16

 Broyden mixing:
  rms(total) = 0.10367E-03    rms(broyden)= 0.10365E-03
  rms(prec ) = 0.15689E-03
  weight for this iteration     100.00

 eigenvalues of (default mixing * dielectric matrix)
  average eigenvalue GAMMA=   1.8925
  3.1740  2.7366  2.3928  1.6756  1.2797  1.1055  0.8829

 Free energy of the ion-electron system (eV)
  ---------------------------------------------------
  -1/2 Hartree   DENC   =        -4.62876126
  -V(xc)+E(xc)   XCENC  =         0.95806280
  PAW double counting   =         3.07057167       -3.11949869
  entropy T*S    EENTRO =         0.00000000
  eigenvalues    EBANDS =       -24.56455317
  ---------------------------------------------------
  free energy    TOTEN  =       -28.28417866 eV

  energy without entropy =      -28.28417866


----------------------------------------- Iteration    3(  10)  ---------------------------------------


   POT+DIJ:  cpu time    0.08: real time    0.08
    HAMIL1:  cpu time    0.00: real time    0.01
    LRDIAG:  cpu time    0.01: real time    0.01
    LRDIIS:  cpu time    0.02: real time    0.02
    LRDIAG:  cpu time    0.01: real time    0.01
    MIXING:  cpu time    0.00: real time    0.00
    --------------------------------------------
      LOOP:  cpu time    0.15: real time    0.16

 Broyden mixing:
  rms(total) = 0.14075E-04    rms(broyden)= 0.14063E-04
  rms(prec ) = 0.22912E-04
  weight for this iteration     100.00

 eigenvalues of (default mixing * dielectric matrix)
  average eigenvalue GAMMA=   1.8364
  3.1955  2.7672  2.4531  1.6690  1.3861  0.9486  1.1568  1.1150

 Free energy of the ion-electron system (eV)
  ---------------------------------------------------
  -1/2 Hartree   DENC   =        -4.62885529
  -V(xc)+E(xc)   XCENC  =         0.95810632
  PAW double counting   =         3.07173516       -3.12068243
  entropy T*S    EENTRO =         0.00000000
  eigenvalues    EBANDS =       -24.56480386
  ---------------------------------------------------
  free energy    TOTEN  =       -28.28450009 eV

  energy without entropy =      -28.28450009


----------------------------------------- Iteration    3(  11)  ---------------------------------------


   POT+DIJ:  cpu time    0.08: real time    0.08
    HAMIL1:  cpu time    0.00: real time    0.01
    LRDIAG:  cpu time    0.01: real time    0.01
    LRDIIS:  cpu time    0.02: real time    0.02
    LRDIAG:  cpu time    0.01: real time    0.01
    MIXING:  cpu time    0.00: real time    0.00
    --------------------------------------------
      LOOP:  cpu time    0.15: real time    0.16

 Broyden mixing:
  rms(total) = 0.41044E-05    rms(broyden)= 0.41023E-05
  rms(prec ) = 0.62305E-05
  weight for this iteration     100.00

 eigenvalues of (default mixing * dielectric matrix)
  average eigenvalue GAMMA=   1.8421
  3.2018  2.7737  2.4347  2.0450  1.6700  1.3421  0.9596  1.0512  1.1010

 Free energy of the ion-electron system (eV)
  ---------------------------------------------------
  -1/2 Hartree   DENC   =        -4.62886316
  -V(xc)+E(xc)   XCENC  =         0.95810314
  PAW double counting   =         3.07180621       -3.12075462
  entropy T*S    EENTRO =         0.00000000
  eigenvalues    EBANDS =       -24.56478276
  ---------------------------------------------------
  free energy    TOTEN  =       -28.28449121 eV

  energy without entropy =      -28.28449121


----------------------------------------- Iteration    3(  12)  ---------------------------------------


   POT+DIJ:  cpu time    0.08: real time    0.08
    HAMIL1:  cpu time    0.00: real time    0.01
    LRDIAG:  cpu time    0.01: real time    0.01
    LRDIIS:  cpu time    0.02: real time    0.02
    LRDIAG:  cpu time    0.01: real time    0.01
    MIXING:  cpu time    0.00: real time    0.00
    --------------------------------------------
      LOOP:  cpu time    0.15: real time    0.15

 Broyden mixing:
  rms(total) = 0.14631E-05    rms(broyden)= 0.14627E-05
  rms(prec ) = 0.20673E-05
  weight for this iteration     100.00

 eigenvalues of (default mixing * dielectric matrix)
  average eigenvalue GAMMA=   1.8402
  3.2023  2.8220  2.4304  2.4304  1.6713  1.3680  1.3680  1.0015  1.0015  1.1061

 Free energy of the ion-electron system (eV)
  ---------------------------------------------------
  -1/2 Hartree   DENC   =        -4.62886593
  -V(xc)+E(xc)   XCENC  =         0.95810379
  PAW double counting   =         3.07174061       -3.12068791
  entropy T*S    EENTRO =         0.00000000
  eigenvalues    EBANDS =       -24.56478579
  ---------------------------------------------------
  free energy    TOTEN  =       -28.28449524 eV

  energy without entropy =      -28.28449524


----------------------------------------- Iteration    3(  13)  ---------------------------------------


   POT+DIJ:  cpu time    0.08: real time    0.08
    HAMIL1:  cpu time    0.00: real time    0.01
    LRDIAG:  cpu time    0.01: real time    0.01
    LRDIIS:  cpu time    0.02: real time    0.02
    LRDIAG:  cpu time    0.01: real time    0.01
    MIXING:  cpu time    0.00: real time    0.00
    --------------------------------------------
      LOOP:  cpu time    0.15: real time    0.15

 Broyden mixing:
  rms(total) = 0.37478E-06    rms(broyden)= 0.37469E-06
  rms(prec ) = 0.59286E-06
  weight for this iteration     100.00

 eigenvalues of (default mixing * dielectric matrix)
  average eigenvalue GAMMA=   1.8068
  3.2094  2.8124  2.4366  2.5955  1.6781  1.6350  0.9904  0.9904  1.2649  1.1154
  1.1463

 Free energy of the ion-electron system (eV)
  ---------------------------------------------------
  -1/2 Hartree   DENC   =        -4.62886541
  -V(xc)+E(xc)   XCENC  =         0.95810344
  PAW double counting   =         3.07171083       -3.12065760
  entropy T*S    EENTRO =         0.00000000
  eigenvalues    EBANDS =       -24.56478544
  ---------------------------------------------------
  free energy    TOTEN  =       -28.28449418 eV

  energy without entropy =      -28.28449418


------------------------ aborting loop because EDIFF is reached ----------------------------------------


 change of polarisation eV/A/(eV/A) component  3 :    -0.250     0.393    50.530
 dielectric tensor                  component  3 :    -0.277     0.434    56.867


--------------------------------------------------------------------------------------------------------


    FORLOC:  cpu time    0.00: real time    0.00
    FORNL :  cpu time    0.09: real time    0.09
    STRESS:  cpu time    0.28: real time    0.29
    FORCOR:  cpu time    0.02: real time    0.02
    FORLOC:  cpu time    0.00: real time    0.00
    FORNL :  cpu time    0.09: real time    0.09
    STRESS:  cpu time    0.28: real time    0.29
    FORCOR:  cpu time    0.02: real time    0.02
    FORNLD:  cpu time    0.01: real time    0.01

 PIEZOELECTRIC TENSOR FIELD DIRECTION 3  (e Angst)
 -----------------------------------------------------------------------------
    -0.00355 -0.00282  0.00368           (  0.00001  0.00000  0.00000)
    -0.00282  0.01012 -0.00075           (  0.00000  0.00000  0.00000)
     0.00368 -0.00075 -0.00691           (  0.00000  0.00000  0.00001)

 PIEZOELECTRIC TENSOR FIELD DIRECTION 3  (C/m^2)
 -----------------------------------------------------------------------------
    -0.00035 -0.00028  0.00036
    -0.00028  0.00099 -0.00007
     0.00036 -0.00007 -0.00068


      POSITION         DIRECTION 3           BORN EFFECTIVE CHARGE    (rigid.aug.   ionic)
 -----------------------------------------------------------------------------------------
      5.46607      5.46998      5.46942     0.02708 -0.08165 -5.76542 (  0.21594  4.00000)
      1.36748      1.36692      1.36906    -0.04150  0.10266 -5.78295 (  0.21592  4.00000)
      2.73442      2.73656      0.00016    -0.03699 -0.00845 -5.84974 (  0.21590  4.00000)
      4.10406      4.10266      1.37081    -0.02035 -0.11886 -5.73132 (  0.21595  4.00000)
      2.73516      0.00331      2.73127    -0.01800 -0.01134 -5.74995 (  0.21594  4.00000)
      4.10581      1.36377      4.10269     0.05592  0.08862 -5.76150 (  0.21594  4.00000)
      5.46627      2.73519      2.73582     0.05793  0.05434 -5.74455 (  0.21594  4.00000)
      1.36769      4.10332      4.10267     0.03716 -0.12279 -5.82911 (  0.21590  4.00000)
 -----------------------------------------------------------------------------------------
    total drift (improves with k-points):   0.06125 -0.09748-46.21453




--------------------------------------------------------------------------------------------------------


  LATTYP: Found a simple cubic cell.
 ALAT       =     5.4700000000
  
  Lattice vectors:
  
 A1 = (   5.4700000000,   0.0000000000,   0.0000000000)
 A2 = (   0.0000000000,   5.4700000000,   0.0000000000)
 A3 = (   0.0000000000,   0.0000000000,   5.4700000000)


Analysis of symmetry for initial positions (statically):
=====================================================================
 Subroutine PRICEL returns:
 Original cell was already a primitive cell.
 

 Routine SETGRP: Setting up the symmetry group for a 
 simple cubic supercell.


 Subroutine GETGRP returns: Found  1 space group operations
 (whereof  1 operations were pure point group operations)
 out of a pool of 48 trial point group operations.


The static configuration has the point symmetry C_1 .


Analysis of symmetry for dynamics (positions and initial velocities):
=====================================================================
 Subroutine PRICEL returns:
 Original cell was already a primitive cell.
 

 Routine SETGRP: Setting up the symmetry group for a 
 simple cubic supercell.


 Subroutine GETGRP returns: Found  1 space group operations
 (whereof  1 operations were pure point group operations)
 out of a pool of 48 trial point group operations.


The dynamic configuration has the point symmetry C_1 .


 MACROSCOPIC STATIC DIELECTRIC TENSOR (including local field effects in DFT)
 ------------------------------------------------------
          56.874593     0.279537    -0.276686
           0.279543    56.868099     0.434333
          -0.276681     0.434338    56.866690
 ------------------------------------------------------



--------------------------------------------------------------------------------------------------------


  LATTYP: Found a simple cubic cell.
 ALAT       =     5.4700000000
  
  Lattice vectors:
  
 A1 = (   5.4700000000,   0.0000000000,   0.0000000000)
 A2 = (   0.0000000000,   5.4700000000,   0.0000000000)
 A3 = (   0.0000000000,   0.0000000000,   5.4700000000)


Analysis of symmetry for initial positions (statically):
=====================================================================
 Subroutine PRICEL returns:
 Original cell was already a primitive cell.
 

 Routine SETGRP: Setting up the symmetry group for a 
 simple cubic supercell.


 Subroutine GETGRP returns: Found  1 space group operations
 (whereof  1 operations were pure point group operations)
 out of a pool of 48 trial point group operations.


The static configuration has the point symmetry C_1 .


Analysis of symmetry for dynamics (positions and initial velocities):
=====================================================================
 Subroutine PRICEL returns:
 Original cell was already a primitive cell.
 

 Routine SETGRP: Setting up the symmetry group for a 
 simple cubic supercell.


 Subroutine GETGRP returns: Found  1 space group operations
 (whereof  1 operations were pure point group operations)
 out of a pool of 48 trial point group operations.


The dynamic configuration has the point symmetry C_1 .
 
 KPOINTS: Automatic mesh                          

Automatic generation of k-mesh.
Space group operators:
 irot       det(A)        alpha          n_x          n_y          n_z        tau_x        tau_y        tau_z
    1     1.000000     0.000001     1.000000     0.000000     0.000000     0.000000     0.000000     0.000000
 
 Subroutine IBZKPT returns following result:
 ===========================================
 
 Found      1 irreducible k-points:
 
 Following reciprocal coordinates:
            Coordinates               Weight
  0.000000  0.000000  0.000000      1.000000
 
 Following cartesian coordinates:
            Coordinates               Weight
  0.000000  0.000000  0.000000      1.000000
 


--------------------------------------------------------------------------------------------------------




 MACROSCOPIC STATIC DIELECTRIC TENSOR (including local field effects in DFT)
 ------------------------------------------------------
          56.874593     0.279537    -0.276686
           0.279543    56.868099     0.434333
          -0.276681     0.434338    56.866690
 ------------------------------------------------------


 PIEZOELECTRIC TENSOR  for field in x, y, z        (e  Angst)
          XX          YY          ZZ          XY          YZ          ZX
  --------------------------------------------------------------------------------
  x     0.00515    -0.00298    -0.00069     0.00237     0.00249    -0.00596
  y     0.00801     0.00260    -0.00671     0.00306    -0.00373    -0.00008
  z    -0.00355     0.01012    -0.00691    -0.00282    -0.00075     0.00368

 PIEZOELECTRIC TENSOR  for field in x, y, z        (C/m^2)
          XX          YY          ZZ          XY          YZ          ZX
  --------------------------------------------------------------------------------
  x     0.00050    -0.00029    -0.00007     0.00023     0.00024    -0.00058
  y     0.00078     0.00025    -0.00066     0.00030    -0.00037    -0.00001
  z    -0.00035     0.00099    -0.00068    -0.00028    -0.00007     0.00036
 
 BORN EFFECTIVE CHARGES (in e, cummulative output)
 -------------------------------------------------
 ion    1
    1    -5.74072     0.10324    -0.04147
    2    -0.08089    -5.73685     0.06253
    3     0.02708    -0.08165    -5.76542
 ion    2
    1    -5.81073    -0.05693     0.03503
    2     0.06796    -5.77925    -0.07445
    3    -0.04150     0.10266    -5.78295
 ion    3
    1    -5.85373    -0.11423     0.04761
    2     0.06965    -5.85870     0.01970
    3    -0.03699    -0.00845    -5.84974
 ion    4
    1    -5.71642     0.03693     0.07685
    2    -0.09002    -5.74863     0.06096
    3    -0.02035    -0.11886    -5.73132
 ion    5
    1    -5.77413     0.07583     0.05419
    2    -0.10478    -5.74083    -0.04005
    3    -0.01800    -0.01134    -5.74995
 ion    6
    1    -5.73528    -0.01666    -0.02279
    2    -0.02961    -5.74550    -0.09020
    3     0.05592     0.08862    -5.76150
 ion    7
    1    -5.74039    -0.09813    -0.02747
    2     0.08565    -5.77429    -0.09022
    3     0.05793     0.05434    -5.74455
 ion    8
    1    -5.84566     0.00779    -0.06061
    2     0.01962    -5.83272     0.05446
    3     0.03716    -0.12279    -5.82911


--------------------------------------------------------------------------------------------------------


     LOOP+:  cpu time   19.07: real time   19.51
    4ORBIT:  cpu time    0.00: real time    0.00

 total amount of memory used by VASP on root node    32224. kBytes
========================================================================

   base      :      30000. kBytes
   nonl-proj :        202. kBytes
   fftplans  :        782. kBytes
   grid      :       1198. kBytes
   one-center:         24. kBytes
   wavefun   :         18. kBytes
 
  
  
 General timing and accounting informations for this job:
 ========================================================
  
                  Total CPU time used (sec):       20.075
                            User time (sec):       15.940
                          System time (sec):        4.135
                         Elapsed time (sec):       22.036
  
                   Maximum memory used (kb):       54464.
                   Average memory used (kb):           0.
  
                          Minor page faults:       213710
                          Major page faults:            0
                 Voluntary context switches:         1515
