 vasp.5.3.3 18Dez12 (build Jan  9 2014 12:00:49) complex                        
  
 executed on             LinuxIFC date 2014.01.29  10:10:20
 running on   48 total cores
 distrk:  each k-point on   48 cores,    1 groups
 distr:  one band on NCORES_PER_BAND=   1 cores,   48 groups


--------------------------------------------------------------------------------------------------------


 INCAR:
 POTCAR:    PAW Si                                

 ----------------------------------------------------------------------------- 
|                                                                             |
|           W    W    AA    RRRRR   N    N  II  N    N   GGGG   !!!           |
|           W    W   A  A   R    R  NN   N  II  NN   N  G    G  !!!           |
|           W    W  A    A  R    R  N N  N  II  N N  N  G       !!!           |
|           W WW W  AAAAAA  RRRRR   N  N N  II  N  N N  G  GGG   !            |
|           WW  WW  A    A  R   R   N   NN  II  N   NN  G    G                |
|           W    W  A    A  R    R  N    N  II  N    N   GGGG   !!!           |
|                                                                             |
|      For optimal performance we recommend that you set                      |
|        NPAR = 4 - approx SQRT( number of cores)                             |
|      (number of cores/NPAR must be integer)                                 |
|      This setting will greatly improve the performance of VASP for DFT.     |
|      The default NPAR=number of cores might be grossly inefficient          |
|      on modern multi-core architectures or massively parallel machines.     |
|      Do your own testing.                                                   |
|      Unfortunately you need to use the default for hybrid, GW and RPA       |
|      calculations.                                                          |
|                                                                             |
 ----------------------------------------------------------------------------- 

 POTCAR:    PAW Si                                
   VRHFIN =Si: s2p2                                                             
   LEXCH  = 91                                                                  
   EATOM  =   103.3076 eV,    7.5929 Ry                                         
                                                                                
   TITEL  = PAW Si                                                              
   LULTRA =        F    use ultrasoft PP ?                                      
   IUNSCR =        1    unscreen: 0-lin 1-nonlin 2-no                           
   RPACOR =    1.500    partial core radius                                     
   POMASS =   28.085; ZVAL   =    4.000    mass and valenz                      
   RCORE  =    1.900    outmost cutoff radius                                   
   RWIGS  =    2.480; RWIGS  =    1.312    wigner-seitz radius (au A)           
   ENMAX  =  245.435; ENMIN  =  184.076 eV                                      
   ICORE  =        2    local potential                                         
   LCOR   =        T    correct aug charges                                     
   LPAW   =        T    paw PP                                                  
   EAUG   =  322.069                                                            
   DEXC   =    -.001                                                            
   RMAX   =    2.943    core radius for proj-oper                               
   RAUG   =    1.300    factor for augmentation sphere                          
   RDEP   =    1.993    core radius for depl-charge                             
   QCUT   =   -4.247; QGAM   =    8.494    optimization parameters              
                                                                                
   Description                                                                  
     l     E      TYP  RCUT    TYP  RCUT                                        
     0   .000     23  1.900                                                     
     0   .000     23  1.900                                                     
     1   .000     23  1.900                                                     
     1   .000     23  1.900                                                     
     2   .000      7  1.900                                                     
  local pseudopotential read in
  partial core-charges read in
  atomic valenz-charges read in
  non local Contribution for L=           0  read in
    real space projection operators read in
  non local Contribution for L=           0  read in
    real space projection operators read in
  non local Contribution for L=           1  read in
    real space projection operators read in
  non local Contribution for L=           1  read in
    real space projection operators read in
    PAW grid and wavefunctions read in
 
   number of l-projection  operators is LMAX  =           4
   number of lm-projection operators is LMMAX =           8
 
  PAW Si                                :
 energy of atom  1       EATOM= -103.3076
 kinetic energy error for atom=    0.0109 (will be added to EATOM!!)
 
 
 POSCAR: OUTCAR.0020.-1.out 1.0e-02              
  positions in cartesian coordinates
  No initial velocities read in
 exchange correlation table for  LEXCH =        7
   RHO(1)=    0.500       N(1)  =     2000
   RHO(2)=  100.500       N(2)  =     4000

 VTST: version 3.0c, (01/09/14)

 CHAIN: initializing optimizer
 
 OPT: Using VASP Dynamics algorithm
 CHAIN: Read ICHAIN            0
 
 POSCAR: OUTCAR.0020.-1.out 1.0e-02              
  positions in cartesian coordinates
  No initial velocities read in
 


--------------------------------------------------------------------------------------------------------


 ion  position               nearest neighbor table
   1  1.000  0.000  0.001-   4 2.37   6 2.37   2 2.37   8 2.37
   2  0.250  0.251  0.250-   5 2.37   7 2.37   1 2.37   3 2.37
   3  0.501  0.500  1.000-   4 2.37   6 2.37   8 2.37   2 2.37
   4  0.750  0.750  0.250-   1 2.37   7 2.37   3 2.37   5 2.37
   5  0.500  1.000  0.499-   2 2.37   8 2.37   6 2.37   4 2.37
   6  0.750  0.249  0.750-   3 2.37   1 2.37   7 2.37   5 2.37
   7  0.999  0.500  0.500-   4 2.37   2 2.37   6 2.37   8 2.37
   8  0.250  0.750  0.750-   5 2.37   3 2.37   7 2.37   1 2.37
 
  LATTYP: Found a simple cubic cell.
 ALAT       =     5.4700000000
  
  Lattice vectors:
  
 A1 = (   5.4700000000,   0.0000000000,   0.0000000000)
 A2 = (   0.0000000000,   5.4700000000,   0.0000000000)
 A3 = (   0.0000000000,   0.0000000000,   5.4700000000)


Analysis of symmetry for initial positions (statically):
=====================================================================
 Subroutine PRICEL returns:
 Original cell was already a primitive cell.
 

 Routine SETGRP: Setting up the symmetry group for a 
 simple cubic supercell.


 Subroutine GETGRP returns: Found  1 space group operations
 (whereof  1 operations were pure point group operations)
 out of a pool of 48 trial point group operations.


The static configuration has the point symmetry C_1 .


Analysis of symmetry for dynamics (positions and initial velocities):
=====================================================================
 Subroutine PRICEL returns:
 Original cell was already a primitive cell.
 

 Routine SETGRP: Setting up the symmetry group for a 
 simple cubic supercell.


 Subroutine GETGRP returns: Found  1 space group operations
 (whereof  1 operations were pure point group operations)
 out of a pool of 48 trial point group operations.


The dynamic configuration has the point symmetry C_1 .


 irot  :   1
 --------------------------------------------------------------------
 isymop:   1   0   0
           0   1   0
           0   0   1

 gtrans:     0.0000000     0.0000000     0.0000000

 ptrans:     0.0000000     0.0000000     0.0000000
 rotmap:
 (   1->   1)  (   2->   2)  (   3->   3)  (   4->   4)  (   5->   5) 
 (   6->   6)  (   7->   7)  (   8->   8) 
 
 
 KPOINTS: Automatic mesh                          

Automatic generation of k-mesh.
Space group operators:
 irot       det(A)        alpha          n_x          n_y          n_z        tau_x        tau_y        tau_z
    1     1.000000     0.000001     1.000000     0.000000     0.000000     0.000000     0.000000     0.000000
 
 Subroutine IBZKPT returns following result:
 ===========================================
 
 Found      1 irreducible k-points:
 
 Following reciprocal coordinates:
            Coordinates               Weight
  0.000000  0.000000  0.000000      1.000000
 
 Following cartesian coordinates:
            Coordinates               Weight
  0.000000  0.000000  0.000000      1.000000
 
 
 Subroutine IBZKPT_HF returns following result:
 ==============================================
 
 Found      1 k-points in 1st BZ
 the following      1 k-points will be used (e.g. in the exchange kernel)
 Following reciprocal coordinates:   # in IRBZ
  0.000000  0.000000  0.000000       1 t-inv F


--------------------------------------------------------------------------------------------------------




 Dimension of arrays:
   k-points           NKPTS =      1   k-points in BZ     NKDIM =      1   number of bands    NBANDS=     48
   number of dos      NEDOS =    301   number of ions     NIONS =      8
   non local maximal  LDIM  =      4   non local SUM 2l+1 LMDIM =      8
   total plane-waves  NPLWV =  21952
   max r-space proj   IRMAX =      1   max aug-charges    IRDMAX=  36071
   dimension x,y,z NGX =    28 NGY =   28 NGZ =   28
   dimension x,y,z NGXF=    56 NGYF=   56 NGZF=   56
   support grid    NGXF=   112 NGYF=  112 NGZF=  112
   ions per type =               8
 NGX,Y,Z   is equivalent  to a cutoff of   8.51,  8.51,  8.51 a.u.
 NGXF,Y,Z  is equivalent  to a cutoff of  17.02, 17.02, 17.02 a.u.


 I would recommend the setting:
   dimension x,y,z NGX =    19 NGY =   19 NGZ =   19
 SYSTEM =  NAPTHA04                                
 POSCAR =  OUTCAR.0020.-1.out 1.0e-02              

 Startparameter for this run:
   NWRITE =      3    write-flag & timer
   PREC   = normal    normal or accurate (medium, high low for compatibility)
   ISTART =      0    job   : 0-new  1-cont  2-samecut
   ICHARG =      2    charge: 1-file 2-atom 10-const
   ISPIN  =      1    spin polarized calculation?
   LNONCOLLINEAR =      F non collinear calculations
   LSORBIT =      F    spin-orbit coupling
   INIWAV =      1    electr: 0-lowe 1-rand  2-diag
   LASPH  =      F    aspherical Exc in radial PAW
   METAGGA=      F    non-selfconsistent MetaGGA calc.

 Electronic Relaxation 1
   ENCUT  =  200.0 eV  14.70 Ry    3.83 a.u.   6.31  6.31  6.31*2*pi/ulx,y,z
   ENINI  =  200.0     initial cutoff
   ENAUG  =  322.1 eV  augmentation charge cutoff
   NELM   =     60;   NELMIN=  2; NELMDL= -5     # of ELM steps 
   EDIFF  = 0.1E-07   stopping-criterion for ELM
   LREAL  =      F    real-space projection
   NLSPLINE    = F    spline interpolate recip. space projectors
   LCOMPAT=      F    compatible to vasp.4.4
   GGA_COMPAT  = T    GGA compatible to vasp.4.4-vasp.4.6
   LMAXPAW     = -100 max onsite density
   LMAXMIX     =    2 max onsite mixed and CHGCAR
   VOSKOWN=      0    Vosko Wilk Nusair interpolation
   ROPT   =    0.00000
 Ionic relaxation
   EDIFFG = 0.1E-06   stopping-criterion for IOM
   NSW    =      0    number of steps for IOM
   NBLOCK =      1;   KBLOCK =      1    inner block; outer block 
   IBRION =     -1    ionic relax: 0-MD 1-quasi-New 2-CG
   NFREE  =      0    steps in history (QN), initial steepest desc. (CG)
   ISIF   =      2    stress and relaxation
   IWAVPR =     10    prediction:  0-non 1-charg 2-wave 3-comb
   ISYM   =      2    0-nonsym 1-usesym 2-fastsym
   LCORR  =      T    Harris-Foulkes like correction to forces

   POTIM  = 0.5000    time-step for ionic-motion
   TEIN   =    0.0    initial temperature
   TEBEG  =    0.0;   TEEND  =   0.0 temperature during run
   SMASS  =  -3.00    Nose mass-parameter (am)
   estimated Nose-frequenzy (Omega)   =  0.10E-29 period in steps =****** mass=  -0.684E-27a.u.
   SCALEE = 1.0000    scale energy and forces
   NPACO  =    256;   APACO  = 16.0  distance and # of slots for P.C.
   PSTRESS=    0.0 pullay stress

  Mass of Ions in am
   POMASS =  28.09
  Ionic Valenz
   ZVAL   =   4.00
  Atomic Wigner-Seitz radii
   RWIGS  =  -1.00
  virtual crystal weights 
   VCA    =   1.00
   NELECT =      32.0000    total number of electrons
   NUPDOWN=      -1.0000    fix difference up-down

 DOS related values:
   EMIN   =  10.00;   EMAX   =-10.00  energy-range for DOS
   EFERMI =   0.00
   ISMEAR =     0;   SIGMA  =   0.02  broadening in eV -4-tet -1-fermi 0-gaus

 Electronic relaxation 2 (details)
   IALGO  =     68    algorithm
   LDIAG  =      T    sub-space diagonalisation (order eigenvalues)
   LSUBROT=      T    optimize rotation matrix (better conditioning)
   TURBO    =      0    0=normal 1=particle mesh
   IRESTART =      0    0=no restart 2=restart with 2 vectors
   NREBOOT  =      0    no. of reboots
   NMIN     =      0    reboot dimension
   EREF     =   0.00    reference energy to select bands
   IMIX   =      4    mixing-type and parameters
     AMIX     =   0.40;   BMIX     =  1.00
     AMIX_MAG =   1.60;   BMIX_MAG =  1.00
     AMIN     =   0.10
     WC   =   100.;   INIMIX=   1;  MIXPRE=   1;  MAXMIX= -45

 Intra band minimization:
   WEIMIN = 0.0000     energy-eigenvalue tresh-hold
   EBREAK =  0.52E-10  absolut break condition
   DEPER  =   0.30     relativ break condition  

   TIME   =   0.40     timestep for ELM

  volume/ion in A,a.u.               =      20.46       138.06
  Fermi-wavevector in a.u.,A,eV,Ry     =   0.950176  1.795573 12.283814  0.902835
  Thomas-Fermi vector in A             =   2.078528
 
 Write flags
   LWAVE  =      F    write WAVECAR
   LCHARG =      F    write CHGCAR
   LVTOT  =      F    write LOCPOT, total local potential
   LVHAR  =      F    write LOCPOT, Hartree potential only
   LELF   =      F    write electronic localiz. function (ELF)
   LORBIT =      0    0 simple, 1 ext, 2 COOP (PROOUT)


 Dipole corrections
   LMONO  =      F    monopole corrections only (constant potential shift)
   LDIPOL =      F    correct potential (dipole corrections)
   IDIPOL =      0    1-x, 2-y, 3-z, 4-all directions 
   EPSILON=  1.0000000 bulk dielectric constant

 Exchange correlation treatment:
   GGA     =    --    GGA type
   LEXCH   =     7    internal setting for exchange type
   VOSKOWN=      0    Vosko Wilk Nusair interpolation
   LHFCALC =     F    Hartree Fock is set to
   LHFONE  =     F    Hartree Fock one center treatment
   AEXX    =    0.0000 exact exchange contribution

 Linear response parameters
   LEPSILON=     T    determine dielectric tensor
   LRPA    =     F    only Hartree local field effects (RPA)
   LNABLA  =     F    use nabla operator in PAW spheres
   LVEL    =     F    velocity operator in full k-point grid
   LINTERFAST=   F  fast interpolation
   KINTER  =     0    interpolate to denser k-point grid
   CSHIFT  =0.1000    complex shift for real part using Kramers Kronig
   OMEGAMAX=  -1.0    maximum frequency
   DEG_THRESHOLD= 0.2000000E-02 threshold for treating states as degnerate
   RTIME   =    0.100 relaxation time in fs

 Orbital magnetization related:
   ORBITALMAG=     F  switch on orbital magnetization
   LCHIMAG   =     F  perturbation theory with respect to B field
   DQ        =  0.001000  dq finite difference perturbation B field



--------------------------------------------------------------------------------------------------------


 Static calculation
 charge density and potential will be updated during run
 non-spin polarized calculation
 RMM-DIIS sequential band-by-band and
  variant of blocked Davidson during initial phase
 perform sub-space diagonalisation
    before iterative eigenvector-optimisation
 modified Broyden-mixing scheme, WC =      100.0
 initial mixing is a Kerker type mixing with AMIX =  0.4000 and BMIX =      1.0000
 Hartree-type preconditioning will be used
 using additional bands           32
 reciprocal scheme for non local part
 use partial core corrections
 calculate Harris-corrections to forces 
   (improved forces if not selfconsistent)
 use gradient corrections 
 use of overlap-Matrix (Vanderbilt PP)
 Gauss-broadening in eV      SIGMA  =   0.02


--------------------------------------------------------------------------------------------------------


  energy-cutoff  :      200.00
  volume of cell :      163.67
      direct lattice vectors                 reciprocal lattice vectors
     5.470000000  0.000000000  0.000000000     0.182815356  0.000000000  0.000000000
     0.000000000  5.470000000  0.000000000     0.000000000  0.182815356  0.000000000
     0.000000000  0.000000000  5.470000000     0.000000000  0.000000000  0.182815356

  length of vectors
     5.470000000  5.470000000  5.470000000     0.182815356  0.182815356  0.182815356


 
 k-points in units of 2pi/SCALE and weight: Automatic mesh                          
   0.00000000  0.00000000  0.00000000       1.000
 
 k-points in reciprocal lattice and weights: Automatic mesh                          
   0.00000000  0.00000000  0.00000000       1.000
 
 position of ions in fractional coordinates (direct lattice) 
   0.99983571  0.00000271  0.00062792
   0.25000271  0.25062792  0.25039864
   0.50062792  0.50039864  0.99966642
   0.75039864  0.74966642  0.24974158
   0.49966642  0.99974158  0.49939901
   0.74974158  0.24939901  0.75002989
   0.99939901  0.50002989  0.50013101
   0.25002989  0.75013101  0.74997183
 
 position of ions in cartesian coordinates  (Angst):
   5.46910133  0.00001485  0.00343472
   1.36751485  1.37093472  1.36968056
   2.73843472  2.73718056  5.46817533
   4.10468056  4.10067533  1.36608642
   2.73317533  5.46858642  2.73171257
   4.10108642  1.36421257  4.10266351
   5.46671257  2.73516351  2.73571664
   1.36766351  4.10321664  4.10234594
 


--------------------------------------------------------------------------------------------------------


 k-point  1 :   0.0000 0.0000 0.0000  plane waves:    1021

 maximum and minimum number of plane-waves per node :      1021     1021

 maximum number of plane-waves:      1021
 maximum index in each direction: 
   IXMAX=    6   IYMAX=    6   IZMAX=    6
   IXMIN=   -6   IYMIN=   -6   IZMIN=   -6

 NGX is ok and might be reduce to  26
 NGY is ok and might be reduce to  26
 NGZ is ok and might be reduce to  26

 serial   3D FFT for wavefunctions
 parallel 3D FFT for charge:
    minimum data exchange during FFTs selected (reduces bandwidth)


 total amount of memory used by VASP on root node    32224. kBytes
========================================================================

   base      :      30000. kBytes
   nonl-proj :        202. kBytes
   fftplans  :        782. kBytes
   grid      :       1198. kBytes
   one-center:         24. kBytes
   wavefun   :         18. kBytes
 
 Broyden mixing: mesh for mixing (old mesh)
   NGX = 13   NGY = 13   NGZ = 13
  (NGX  = 56   NGY  = 56   NGZ  = 56)
  gives a total of   2197 points

 initial charge density was supplied:
 charge density of overlapping atoms calculated
 number of electron      32.0000000 magnetization 
 keeping initial charge density in first step


--------------------------------------------------------------------------------------------------------


 Maximum index for augmentation-charges         1788 (set IRDMAX)


--------------------------------------------------------------------------------------------------------


 First call to EWALD:  gamma=   0.324
 Maximum number of real-space cells 3x 3x 3
 Maximum number of reciprocal cells 3x 3x 3

 FEWALD executed in parallel
    FEWALD:  cpu time    0.00: real time    0.00


----------------------------------------- Iteration    1(   1)  ---------------------------------------


    POTLOK:  cpu time    0.03: real time    0.04
    SETDIJ:  cpu time    0.03: real time    0.03
     EDDAV:  cpu time    0.41: real time    0.41
       DOS:  cpu time    0.00: real time    0.00
    --------------------------------------------
      LOOP:  cpu time    0.47: real time    0.50

 eigenvalue-minimisations  :    96
 total energy-change (2. order) :-0.1012876E+02  (-0.7956100E+03)
 number of electron      32.0000000 magnetization 
 augmentation part       32.0000000 magnetization 

 Free energy of the ion-electron system (eV)
  ---------------------------------------------------
  alpha Z        PSCENC =        12.68944982
  Ewald energy   TEWEN  =      -907.56815105
  -1/2 Hartree   DENC   =       -45.63574823
  -exchange  EXHF       =         0.00000000
  -V(xc)+E(xc)   XCENC  =       -76.79674348
  PAW double counting   =       265.93453375     -123.69690146
  entropy T*S    EENTRO =        -0.00032222
  eigenvalues    EBANDS =        38.57114146
  atomic energy  EATOM  =       826.37398168
  ---------------------------------------------------
  free energy    TOTEN  =       -10.12875973 eV

  energy without entropy =      -10.12843751  energy(sigma->0) =      -10.12859862


--------------------------------------------------------------------------------------------------------




 average (electrostatic) potential at core
  the test charge radii are     0.9892
  (the norm of the test charge is              1.0000)
       1 -84.3500       2 -84.3481       3 -84.3506       4 -84.3570       5 -84.3501
       6 -84.3496       7 -84.3518       8 -84.3477
 
 
 
 E-fermi :   6.6081     XC(G=0):  -9.5533     alpha+bet :-11.7379


 k-point   1 :       0.0000    0.0000    0.0000
  band No.  band energies     occupation 
      1      -6.5895      2.00000
      2      -2.4129      2.00000
      3      -2.2461      2.00000
      4      -2.1224      2.00000
      5      -2.0325      2.00000
      6      -1.8757      2.00000
      7      -1.6771      2.00000
      8       2.7426      2.00000
      9       2.8495      2.00000
     10       2.9928      2.00000
     11       3.1610      2.00000
     12       3.3456      2.00000
     13       4.0800      2.00000
     14       6.1404      2.00000
     15       6.3630      2.00000
     16       6.5668      1.99644
     17       6.6493      0.00356
     18       6.8054      0.00000
     19       6.9057      0.00000
     20       7.1727      0.00000
     21       7.3749      0.00000
     22       8.0484      0.00000
     23       8.9822      0.00000
     24       9.3764      0.00000
     25      10.4502      0.00000
     26      11.4529      0.00000
     27      13.5070      0.00000
     28      14.7723      0.00000
     29      16.5547      0.00000
     30      16.8989      0.00000
     31      17.3629      0.00000
     32      17.5905      0.00000
     33      17.9299      0.00000
     34      18.1231      0.00000
     35      18.4980      0.00000
     36      18.8828      0.00000
     37      19.3706      0.00000
     38      19.5172      0.00000
     39      19.8568      0.00000
     40      20.2536      0.00000
     41      21.0965      0.00000
     42      21.6794      0.00000
     43      22.1843      0.00000
     44      22.7579      0.00000
     45      23.8998      0.00000
     46      24.4006      0.00000
     47      24.8118      0.00000
     48      25.8350      0.00000


--------------------------------------------------------------------------------------------------------


 soft charge-density along one line, spin component           1
         0         1         2         3         4         5         6         7         8         9
 total charge-density along one line
 
 pseudopotential strength for first ion, spin component:           1
 18.662   0.000   0.000   0.000   0.000   0.000   0.000   0.000
  0.000   0.006   0.000   0.000   0.000   0.000   0.000   0.000
  0.000   0.000   4.216   0.000   0.000  -0.004   0.000   0.000
  0.000   0.000   0.000   4.216   0.000   0.000  -0.004   0.000
  0.000   0.000   0.000   0.000   4.216   0.000   0.000  -0.004
  0.000   0.000  -0.004   0.000   0.000   0.005   0.000   0.000
  0.000   0.000   0.000  -0.004   0.000   0.000   0.005   0.000
  0.000   0.000   0.000   0.000  -0.004   0.000   0.000   0.005
 total augmentation occupancy for first ion, spin component:           1
  2.000   0.000   0.000   0.000   0.000   0.000   0.000   0.000
  0.000   0.000   0.000   0.000   0.000   0.000   0.000   0.000
  0.000   0.000   0.667   0.000   0.000   0.000   0.000   0.000
  0.000   0.000   0.000   0.667   0.000   0.000   0.000   0.000
  0.000   0.000   0.000   0.000   0.667   0.000   0.000   0.000
  0.000   0.000   0.000   0.000   0.000   0.000   0.000   0.000
  0.000   0.000   0.000   0.000   0.000   0.000   0.000   0.000
  0.000   0.000   0.000   0.000   0.000   0.000   0.000   0.000


----------------------------------------- Iteration    1(   2)  ---------------------------------------


     EDDAV:  cpu time    0.98: real time    0.98
       DOS:  cpu time    0.00: real time    0.00
    --------------------------------------------
      LOOP:  cpu time    0.98: real time    0.99

 eigenvalue-minimisations  :   144
 total energy-change (2. order) :-0.2432189E+02  (-0.2431845E+02)
 number of electron      32.0000000 magnetization 
 augmentation part       32.0000000 magnetization 

 Free energy of the ion-electron system (eV)
  ---------------------------------------------------
  alpha Z        PSCENC =        12.68944982
  Ewald energy   TEWEN  =      -907.56815105
  -1/2 Hartree   DENC   =       -45.63574823
  -exchange  EXHF       =         0.00000000
  -V(xc)+E(xc)   XCENC  =       -76.79674348
  PAW double counting   =       265.93453375     -123.69690146
  entropy T*S    EENTRO =         0.00000000
  eigenvalues    EBANDS =        14.24892760
  atomic energy  EATOM  =       826.37398168
  ---------------------------------------------------
  free energy    TOTEN  =       -34.45065137 eV

  energy without entropy =      -34.45065137  energy(sigma->0) =      -34.45065137


--------------------------------------------------------------------------------------------------------




 average (electrostatic) potential at core
  the test charge radii are     0.9892
  (the norm of the test charge is              1.0000)
       1 -84.3500       2 -84.3481       3 -84.3506       4 -84.3570       5 -84.3501
       6 -84.3496       7 -84.3518       8 -84.3477
 
 
 
 E-fermi :   5.2508     XC(G=0):  -9.5533     alpha+bet :-11.7379


 k-point   1 :       0.0000    0.0000    0.0000
  band No.  band energies     occupation 
      1      -6.6371      2.00000
      2      -2.6433      2.00000
      3      -2.6355      2.00000
      4      -2.6300      2.00000
      5      -2.6265      2.00000
      6      -2.6206      2.00000
      7      -2.6191      2.00000
      8       2.3756      2.00000
      9       2.3771      2.00000
     10       2.3805      2.00000
     11       2.3824      2.00000
     12       2.3858      2.00000
     13       2.3947      2.00000
     14       5.0678      2.00000
     15       5.0816      2.00000
     16       5.0909      2.00000
     17       6.1487      0.00000
     18       6.1509      0.00000
     19       6.1551      0.00000
     20       6.1569      0.00000
     21       6.1595      0.00000
     22       6.1685      0.00000
     23       7.8520      0.00000
     24       7.8571      0.00000
     25       7.8625      0.00000
     26       8.1266      0.00000
     27      13.2004      0.00000
     28      13.2624      0.00000
     29      13.2697      0.00000
     30      15.0972      0.00000
     31      15.1375      0.00000
     32      15.1708      0.00000
     33      15.2472      0.00000
     34      15.3120      0.00000
     35      15.6363      0.00000
     36      16.3846      0.00000
     37      16.4252      0.00000
     38      16.4498      0.00000
     39      16.5337      0.00000
     40      16.7180      0.00000
     41      16.7512      0.00000
     42      16.7695      0.00000
     43      16.8703      0.00000
     44      17.2266      0.00000
     45      17.9141      0.00000
     46      17.9522      0.00000
     47      17.9910      0.00000
     48      18.0203      0.00000


--------------------------------------------------------------------------------------------------------


 soft charge-density along one line, spin component           1
         0         1         2         3         4         5         6         7         8         9
 total charge-density along one line
 
 pseudopotential strength for first ion, spin component:           1
 18.662   0.000   0.000   0.000   0.000   0.000   0.000   0.000
  0.000   0.006   0.000   0.000   0.000   0.000   0.000   0.000
  0.000   0.000   4.216   0.000   0.000  -0.004   0.000   0.000
  0.000   0.000   0.000   4.216   0.000   0.000  -0.004   0.000
  0.000   0.000   0.000   0.000   4.216   0.000   0.000  -0.004
  0.000   0.000  -0.004   0.000   0.000   0.005   0.000   0.000
  0.000   0.000   0.000  -0.004   0.000   0.000   0.005   0.000
  0.000   0.000   0.000   0.000  -0.004   0.000   0.000   0.005
 total augmentation occupancy for first ion, spin component:           1
  2.000   0.000   0.000   0.000   0.000   0.000   0.000   0.000
  0.000   0.000   0.000   0.000   0.000   0.000   0.000   0.000
  0.000   0.000   0.667   0.000   0.000   0.000   0.000   0.000
  0.000   0.000   0.000   0.667   0.000   0.000   0.000   0.000
  0.000   0.000   0.000   0.000   0.667   0.000   0.000   0.000
  0.000   0.000   0.000   0.000   0.000   0.000   0.000   0.000
  0.000   0.000   0.000   0.000   0.000   0.000   0.000   0.000
  0.000   0.000   0.000   0.000   0.000   0.000   0.000   0.000


----------------------------------------- Iteration    1(   3)  ---------------------------------------


     EDDAV:  cpu time    0.39: real time    0.40
       DOS:  cpu time    0.00: real time    0.00
    --------------------------------------------
      LOOP:  cpu time    0.40: real time    0.40

 eigenvalue-minimisations  :    96
 total energy-change (2. order) :-0.1672151E+00  (-0.1672151E+00)
 number of electron      32.0000000 magnetization 
 augmentation part       32.0000000 magnetization 

 Free energy of the ion-electron system (eV)
  ---------------------------------------------------
  alpha Z        PSCENC =        12.68944982
  Ewald energy   TEWEN  =      -907.56815105
  -1/2 Hartree   DENC   =       -45.63574823
  -exchange  EXHF       =         0.00000000
  -V(xc)+E(xc)   XCENC  =       -76.79674348
  PAW double counting   =       265.93453375     -123.69690146
  entropy T*S    EENTRO =         0.00000000
  eigenvalues    EBANDS =        14.08171251
  atomic energy  EATOM  =       826.37398168
  ---------------------------------------------------
  free energy    TOTEN  =       -34.61786646 eV

  energy without entropy =      -34.61786646  energy(sigma->0) =      -34.61786646


--------------------------------------------------------------------------------------------------------




 average (electrostatic) potential at core
  the test charge radii are     0.9892
  (the norm of the test charge is              1.0000)
       1 -84.3500       2 -84.3481       3 -84.3506       4 -84.3570       5 -84.3501
       6 -84.3496       7 -84.3518       8 -84.3477
 
 
 
 E-fermi :   5.2120     XC(G=0):  -9.5533     alpha+bet :-11.7379


 k-point   1 :       0.0000    0.0000    0.0000
  band No.  band energies     occupation 
      1      -6.6372      2.00000
      2      -2.6455      2.00000
      3      -2.6371      2.00000
      4      -2.6319      2.00000
      5      -2.6297      2.00000
      6      -2.6234      2.00000
      7      -2.6204      2.00000
      8       2.3732      2.00000
      9       2.3735      2.00000
     10       2.3770      2.00000
     11       2.3782      2.00000
     12       2.3810      2.00000
     13       2.3831      2.00000
     14       5.0603      2.00000
     15       5.0684      2.00000
     16       5.0712      2.00000
     17       6.1464      0.00000
     18       6.1476      0.00000
     19       6.1517      0.00000
     20       6.1537      0.00000
     21       6.1557      0.00000
     22       6.1643      0.00000
     23       7.8470      0.00000
     24       7.8486      0.00000
     25       7.8530      0.00000
     26       8.1178      0.00000
     27      13.1845      0.00000
     28      13.1867      0.00000
     29      13.2691      0.00000
     30      15.0816      0.00000
     31      15.0899      0.00000
     32      15.0956      0.00000
     33      15.1100      0.00000
     34      15.1272      0.00000
     35      15.1819      0.00000
     36      16.3221      0.00000
     37      16.3315      0.00000
     38      16.3412      0.00000
     39      16.3637      0.00000
     40      16.4334      0.00000
     41      16.4828      0.00000
     42      16.7135      0.00000
     43      16.7161      0.00000
     44      16.8145      0.00000
     45      17.8848      0.00000
     46      17.8943      0.00000
     47      17.9179      0.00000
     48      17.9397      0.00000


--------------------------------------------------------------------------------------------------------


 soft charge-density along one line, spin component           1
         0         1         2         3         4         5         6         7         8         9
 total charge-density along one line
 
 pseudopotential strength for first ion, spin component:           1
 18.662   0.000   0.000   0.000   0.000   0.000   0.000   0.000
  0.000   0.006   0.000   0.000   0.000   0.000   0.000   0.000
  0.000   0.000   4.216   0.000   0.000  -0.004   0.000   0.000
  0.000   0.000   0.000   4.216   0.000   0.000  -0.004   0.000
  0.000   0.000   0.000   0.000   4.216   0.000   0.000  -0.004
  0.000   0.000  -0.004   0.000   0.000   0.005   0.000   0.000
  0.000   0.000   0.000  -0.004   0.000   0.000   0.005   0.000
  0.000   0.000   0.000   0.000  -0.004   0.000   0.000   0.005
 total augmentation occupancy for first ion, spin component:           1
  2.000   0.000   0.000   0.000   0.000   0.000   0.000   0.000
  0.000   0.000   0.000   0.000   0.000   0.000   0.000   0.000
  0.000   0.000   0.667   0.000   0.000   0.000   0.000   0.000
  0.000   0.000   0.000   0.667   0.000   0.000   0.000   0.000
  0.000   0.000   0.000   0.000   0.667   0.000   0.000   0.000
  0.000   0.000   0.000   0.000   0.000   0.000   0.000   0.000
  0.000   0.000   0.000   0.000   0.000   0.000   0.000   0.000
  0.000   0.000   0.000   0.000   0.000   0.000   0.000   0.000


----------------------------------------- Iteration    1(   4)  ---------------------------------------


     EDDAV:  cpu time    2.01: real time    2.01
       DOS:  cpu time    0.00: real time    0.00
    --------------------------------------------
      LOOP:  cpu time    2.02: real time    2.02

 eigenvalue-minimisations  :   192
 total energy-change (2. order) :-0.3546264E-03  (-0.3546264E-03)
 number of electron      32.0000000 magnetization 
 augmentation part       32.0000000 magnetization 

 Free energy of the ion-electron system (eV)
  ---------------------------------------------------
  alpha Z        PSCENC =        12.68944982
  Ewald energy   TEWEN  =      -907.56815105
  -1/2 Hartree   DENC   =       -45.63574823
  -exchange  EXHF       =         0.00000000
  -V(xc)+E(xc)   XCENC  =       -76.79674348
  PAW double counting   =       265.93453375     -123.69690146
  entropy T*S    EENTRO =         0.00000000
  eigenvalues    EBANDS =        14.08135789
  atomic energy  EATOM  =       826.37398168
  ---------------------------------------------------
  free energy    TOTEN  =       -34.61822108 eV

  energy without entropy =      -34.61822108  energy(sigma->0) =      -34.61822108


--------------------------------------------------------------------------------------------------------




 average (electrostatic) potential at core
  the test charge radii are     0.9892
  (the norm of the test charge is              1.0000)
       1 -84.3500       2 -84.3481       3 -84.3506       4 -84.3570       5 -84.3501
       6 -84.3496       7 -84.3518       8 -84.3477
 
 
 
 E-fermi :   5.2007     XC(G=0):  -9.5533     alpha+bet :-11.7379


 k-point   1 :       0.0000    0.0000    0.0000
  band No.  band energies     occupation 
      1      -6.6372      2.00000
      2      -2.6455      2.00000
      3      -2.6371      2.00000
      4      -2.6319      2.00000
      5      -2.6297      2.00000
      6      -2.6234      2.00000
      7      -2.6204      2.00000
      8       2.3732      2.00000
      9       2.3735      2.00000
     10       2.3770      2.00000
     11       2.3782      2.00000
     12       2.3810      2.00000
     13       2.3831      2.00000
     14       5.0603      2.00000
     15       5.0684      2.00000
     16       5.0712      2.00000
     17       6.1463      0.00000
     18       6.1476      0.00000
     19       6.1517      0.00000
     20       6.1537      0.00000
     21       6.1557      0.00000
     22       6.1643      0.00000
     23       7.8470      0.00000
     24       7.8485      0.00000
     25       7.8530      0.00000
     26       8.1178      0.00000
     27      13.1837      0.00000
     28      13.1838      0.00000
     29      13.2691      0.00000
     30      15.0767      0.00000
     31      15.0801      0.00000
     32      15.0842      0.00000
     33      15.0862      0.00000
     34      15.0900      0.00000
     35      15.0916      0.00000
     36      16.2991      0.00000
     37      16.3016      0.00000
     38      16.3085      0.00000
     39      16.3132      0.00000
     40      16.3176      0.00000
     41      16.3230      0.00000
     42      16.7016      0.00000
     43      16.7033      0.00000
     44      16.7082      0.00000
     45      17.8759      0.00000
     46      17.8804      0.00000
     47      17.8843      0.00000
     48      17.8931      0.00000


--------------------------------------------------------------------------------------------------------


 soft charge-density along one line, spin component           1
         0         1         2         3         4         5         6         7         8         9
 total charge-density along one line
 
 pseudopotential strength for first ion, spin component:           1
 18.662   0.000   0.000   0.000   0.000   0.000   0.000   0.000
  0.000   0.006   0.000   0.000   0.000   0.000   0.000   0.000
  0.000   0.000   4.216   0.000   0.000  -0.004   0.000   0.000
  0.000   0.000   0.000   4.216   0.000   0.000  -0.004   0.000
  0.000   0.000   0.000   0.000   4.216   0.000   0.000  -0.004
  0.000   0.000  -0.004   0.000   0.000   0.005   0.000   0.000
  0.000   0.000   0.000  -0.004   0.000   0.000   0.005   0.000
  0.000   0.000   0.000   0.000  -0.004   0.000   0.000   0.005
 total augmentation occupancy for first ion, spin component:           1
  2.000   0.000   0.000   0.000   0.000   0.000   0.000   0.000
  0.000   0.000   0.000   0.000   0.000   0.000   0.000   0.000
  0.000   0.000   0.667   0.000   0.000   0.000   0.000   0.000
  0.000   0.000   0.000   0.667   0.000   0.000   0.000   0.000
  0.000   0.000   0.000   0.000   0.667   0.000   0.000   0.000
  0.000   0.000   0.000   0.000   0.000   0.000   0.000   0.000
  0.000   0.000   0.000   0.000   0.000   0.000   0.000   0.000
  0.000   0.000   0.000   0.000   0.000   0.000   0.000   0.000


----------------------------------------- Iteration    1(   5)  ---------------------------------------


     EDDAV:  cpu time    0.39: real time    0.39
       DOS:  cpu time    0.00: real time    0.00
    CHARGE:  cpu time    0.02: real time    0.02
    MIXING:  cpu time    0.00: real time    0.01
    --------------------------------------------
      LOOP:  cpu time    0.42: real time    0.43

 eigenvalue-minimisations  :    96
 total energy-change (2. order) :-0.3056698E-08  (-0.3056601E-08)
 number of electron      31.9999999 magnetization 
 augmentation part       -1.8053302 magnetization 

 Broyden mixing:
  rms(total) = 0.79305E+00    rms(broyden)= 0.79300E+00
  rms(prec ) = 0.15228E+01
  weight for this iteration     100.00

 Free energy of the ion-electron system (eV)
  ---------------------------------------------------
  alpha Z        PSCENC =        12.68944982
  Ewald energy   TEWEN  =      -907.56815105
  -1/2 Hartree   DENC   =       -45.63574823
  -exchange  EXHF       =         0.00000000
  -V(xc)+E(xc)   XCENC  =       -76.79674348
  PAW double counting   =       265.93453375     -123.69690146
  entropy T*S    EENTRO =         0.00000000
  eigenvalues    EBANDS =        14.08135788
  atomic energy  EATOM  =       826.37398168
  ---------------------------------------------------
  free energy    TOTEN  =       -34.61822109 eV

  energy without entropy =      -34.61822109  energy(sigma->0) =      -34.61822109


--------------------------------------------------------------------------------------------------------




 average (electrostatic) potential at core
  the test charge radii are     0.9892
  (the norm of the test charge is              1.0000)
       1 -84.3500       2 -84.3481       3 -84.3506       4 -84.3570       5 -84.3501
       6 -84.3496       7 -84.3518       8 -84.3477
 
 
 
 E-fermi :   5.1967     XC(G=0):  -9.5533     alpha+bet :-11.7379


 k-point   1 :       0.0000    0.0000    0.0000
  band No.  band energies     occupation 
      1      -6.6372      2.00000
      2      -2.6455      2.00000
      3      -2.6371      2.00000
      4      -2.6319      2.00000
      5      -2.6297      2.00000
      6      -2.6234      2.00000
      7      -2.6204      2.00000
      8       2.3732      2.00000
      9       2.3735      2.00000
     10       2.3770      2.00000
     11       2.3782      2.00000
     12       2.3810      2.00000
     13       2.3831      2.00000
     14       5.0603      2.00000
     15       5.0684      2.00000
     16       5.0712      2.00000
     17       6.1463      0.00000
     18       6.1476      0.00000
     19       6.1517      0.00000
     20       6.1537      0.00000
     21       6.1557      0.00000
     22       6.1643      0.00000
     23       7.8470      0.00000
     24       7.8485      0.00000
     25       7.8530      0.00000
     26       8.1178      0.00000
     27      13.1837      0.00000
     28      13.1838      0.00000
     29      13.2691      0.00000
     30      15.0767      0.00000
     31      15.0800      0.00000
     32      15.0842      0.00000
     33      15.0862      0.00000
     34      15.0900      0.00000
     35      15.0916      0.00000
     36      16.2988      0.00000
     37      16.3011      0.00000
     38      16.3081      0.00000
     39      16.3128      0.00000
     40      16.3174      0.00000
     41      16.3228      0.00000
     42      16.7014      0.00000
     43      16.7032      0.00000
     44      16.7081      0.00000
     45      17.8711      0.00000
     46      17.8774      0.00000
     47      17.8787      0.00000
     48      17.8847      0.00000


--------------------------------------------------------------------------------------------------------


 soft charge-density along one line, spin component           1
         0         1         2         3         4         5         6         7         8         9
 total charge-density along one line
 
 pseudopotential strength for first ion, spin component:           1
 18.662   0.000   0.000   0.000   0.000   0.000   0.000   0.000
  0.000   0.006   0.000   0.000   0.000   0.000   0.000   0.000
  0.000   0.000   4.216   0.000   0.000  -0.004   0.000   0.000
  0.000   0.000   0.000   4.216   0.000   0.000  -0.004   0.000
  0.000   0.000   0.000   0.000   4.216   0.000   0.000  -0.004
  0.000   0.000  -0.004   0.000   0.000   0.005   0.000   0.000
  0.000   0.000   0.000  -0.004   0.000   0.000   0.005   0.000
  0.000   0.000   0.000   0.000  -0.004   0.000   0.000   0.005
 total augmentation occupancy for first ion, spin component:           1
  1.380  -1.051  -0.001   0.001  -0.002   0.001  -0.001   0.002
 -1.051   0.918   0.001   0.000   0.001  -0.001   0.000  -0.002
 -0.001   0.001   1.165  -0.001   0.000  -0.758   0.002  -0.001
  0.001   0.000  -0.001   1.165   0.000   0.002  -0.758   0.000
 -0.002   0.001   0.000   0.000   1.164  -0.001   0.001  -0.758
  0.001  -0.001  -0.758   0.002  -0.001   0.569  -0.002   0.001
 -0.001   0.000   0.002  -0.758   0.001  -0.002   0.569  -0.001
  0.002  -0.002  -0.001   0.000  -0.758   0.001  -0.001   0.569


----------------------------------------- Iteration    1(   6)  ---------------------------------------


    POTLOK:  cpu time    0.02: real time    0.02
    SETDIJ:  cpu time    0.02: real time    0.02
    EDDIAG:  cpu time    0.03: real time    0.03
  RMM-DIIS:  cpu time    0.03: real time    0.03
    ORTHCH:  cpu time    0.01: real time    0.01
       DOS:  cpu time    0.00: real time    0.00
    CHARGE:  cpu time    0.02: real time    0.02
    MIXING:  cpu time    0.00: real time    0.00
    --------------------------------------------
      LOOP:  cpu time    0.14: real time    0.14

 eigenvalue-minimisations  :    96
 total energy-change (2. order) : 0.1001641E+01  (-0.3198444E-01)
 number of electron      31.9999999 magnetization 
 augmentation part       -1.7684000 magnetization 

 Broyden mixing:
  rms(total) = 0.47398E+00    rms(broyden)= 0.47398E+00
  rms(prec ) = 0.91064E+00
  weight for this iteration     100.00

 eigenvalues of (default mixing * dielectric matrix)
  average eigenvalue GAMMA=   2.4573
  2.4573

 Free energy of the ion-electron system (eV)
  ---------------------------------------------------
  alpha Z        PSCENC =        12.68944982
  Ewald energy   TEWEN  =      -907.56815105
  -1/2 Hartree   DENC   =       -54.68205072
  -exchange  EXHF       =         0.00000000
  -V(xc)+E(xc)   XCENC  =       -75.44945777
  PAW double counting   =       286.06013112     -144.35842436
  entropy T*S    EENTRO =         0.00000000
  eigenvalues    EBANDS =        23.31794152
  atomic energy  EATOM  =       826.37398168
  ---------------------------------------------------
  free energy    TOTEN  =       -33.61657976 eV

  energy without entropy =      -33.61657976  energy(sigma->0) =      -33.61657976


--------------------------------------------------------------------------------------------------------




 average (electrostatic) potential at core
  the test charge radii are     0.9892
  (the norm of the test charge is              1.0000)
       1 -83.8325       2 -83.8316       3 -83.8328       4 -83.8359       5 -83.8326
       6 -83.8324       7 -83.8334       8 -83.8315
 
 
 
 E-fermi :   5.5482     XC(G=0):  -9.4504     alpha+bet :-11.7379


 k-point   1 :       0.0000    0.0000    0.0000
  band No.  band energies     occupation 
      1      -6.3787      2.00000
      2      -2.3446      2.00000
      3      -2.3374      2.00000
      4      -2.3328      2.00000
      5      -2.3313      2.00000
      6      -2.3256      2.00000
      7      -2.3230      2.00000
      8       2.6348      2.00000
      9       2.6350      2.00000
     10       2.6382      2.00000
     11       2.6392      2.00000
     12       2.6416      2.00000
     13       2.6435      2.00000
     14       5.3938      2.00000
     15       5.4017      2.00000
     16       5.4045      2.00000
     17       6.2616      0.00000
     18       6.2626      0.00000
     19       6.2663      0.00000
     20       6.2681      0.00000
     21       6.2698      0.00000
     22       6.2775      0.00000
     23       8.0543      0.00000
     24       8.0559      0.00000
     25       8.0605      0.00000
     26       8.4862      0.00000
     27      13.3048      0.00000
     28      13.3568      0.00000
     29      13.3569      0.00000
     30      15.3734      0.00000
     31      15.3765      0.00000
     32      15.3804      0.00000
     33      15.3820      0.00000
     34      15.3858      0.00000
     35      15.3872      0.00000
     36      16.5356      0.00000
     37      16.5377      0.00000
     38      16.5442      0.00000
     39      16.5484      0.00000
     40      16.5527      0.00000
     41      16.5575      0.00000
     42      16.7460      0.00000
     43      16.7478      0.00000
     44      16.7528      0.00000
     45      18.1585      0.00000
     46      18.1655      0.00000
     47      18.1681      0.00000
     48      18.1728      0.00000


--------------------------------------------------------------------------------------------------------


 soft charge-density along one line, spin component           1
         0         1         2         3         4         5         6         7         8         9
 total charge-density along one line
 
 pseudopotential strength for first ion, spin component:           1
 18.635  -0.001   0.000   0.000   0.000   0.000   0.000   0.000
 -0.001   0.006   0.000   0.000   0.000   0.000   0.000   0.000
  0.000   0.000   4.221   0.000   0.000  -0.004   0.000   0.000
  0.000   0.000   0.000   4.221   0.000   0.000  -0.004   0.000
  0.000   0.000   0.000   0.000   4.221   0.000   0.000  -0.004
  0.000   0.000  -0.004   0.000   0.000   0.005   0.000   0.000
  0.000   0.000   0.000  -0.004   0.000   0.000   0.005   0.000
  0.000   0.000   0.000   0.000  -0.004   0.000   0.000   0.005
 total augmentation occupancy for first ion, spin component:           1
  1.351  -1.090  -0.001   0.001  -0.002   0.001  -0.001   0.002
 -1.090   0.997   0.000   0.000   0.000  -0.001   0.000  -0.002
 -0.001   0.000   1.147  -0.001   0.000  -0.782   0.002  -0.001
  0.001   0.000  -0.001   1.147  -0.001   0.002  -0.782   0.001
 -0.002   0.000   0.000  -0.001   1.146  -0.001   0.001  -0.781
  0.001  -0.001  -0.782   0.002  -0.001   0.608  -0.002   0.002
 -0.001   0.000   0.002  -0.782   0.001  -0.002   0.607  -0.001
  0.002  -0.002  -0.001   0.001  -0.781   0.002  -0.001   0.608


----------------------------------------- Iteration    1(   7)  ---------------------------------------


    POTLOK:  cpu time    0.02: real time    0.02
    SETDIJ:  cpu time    0.02: real time    0.02
    EDDIAG:  cpu time    0.02: real time    0.02
  RMM-DIIS:  cpu time    0.03: real time    0.03
    ORTHCH:  cpu time    0.01: real time    0.01
       DOS:  cpu time    0.00: real time    0.00
    CHARGE:  cpu time    0.02: real time    0.02
    MIXING:  cpu time    0.00: real time    0.00
    --------------------------------------------
      LOOP:  cpu time    0.13: real time    0.13

 eigenvalue-minimisations  :    96
 total energy-change (2. order) : 0.4246040E+00  (-0.7388264E-01)
 number of electron      31.9999999 magnetization 
 augmentation part       -1.7214466 magnetization 

 Broyden mixing:
  rms(total) = 0.46275E-01    rms(broyden)= 0.46265E-01
  rms(prec ) = 0.78501E-01
  weight for this iteration     100.00

 eigenvalues of (default mixing * dielectric matrix)
  average eigenvalue GAMMA=   2.5304
  2.5304  2.5304

 Free energy of the ion-electron system (eV)
  ---------------------------------------------------
  alpha Z        PSCENC =        12.68944982
  Ewald energy   TEWEN  =      -907.56815105
  -1/2 Hartree   DENC   =       -70.51194165
  -exchange  EXHF       =         0.00000000
  -V(xc)+E(xc)   XCENC  =       -73.00944045
  PAW double counting   =       313.72220105     -172.73414829
  entropy T*S    EENTRO =         0.00000000
  eigenvalues    EBANDS =        37.84607311
  atomic energy  EATOM  =       826.37398168
  ---------------------------------------------------
  free energy    TOTEN  =       -33.19197578 eV

  energy without entropy =      -33.19197578  energy(sigma->0) =      -33.19197578


--------------------------------------------------------------------------------------------------------




 average (electrostatic) potential at core
  the test charge radii are     0.9892
  (the norm of the test charge is              1.0000)
       1 -83.1452       2 -83.1444       3 -83.1459       4 -83.1475       5 -83.1456
       6 -83.1453       7 -83.1460       8 -83.1449
 
 
 
 E-fermi :   6.0965     XC(G=0):  -9.2018     alpha+bet :-11.7379


 k-point   1 :       0.0000    0.0000    0.0000
  band No.  band energies     occupation 
      1      -5.9621      2.00000
      2      -1.8764      2.00000
      3      -1.8702      2.00000
      4      -1.8662      2.00000
      5      -1.8654      2.00000
      6      -1.8600      2.00000
      7      -1.8579      2.00000
      8       3.0477      2.00000
      9       3.0480      2.00000
     10       3.0510      2.00000
     11       3.0517      2.00000
     12       3.0538      2.00000
     13       3.0556      2.00000
     14       5.9185      2.00000
     15       5.9262      2.00000
     16       5.9289      2.00000
     17       6.5208      0.00000
     18       6.5214      0.00000
     19       6.5249      0.00000
     20       6.5265      0.00000
     21       6.5280      0.00000
     22       6.5343      0.00000
     23       8.3793      0.00000
     24       8.3810      0.00000
     25       8.3857      0.00000
     26       9.0452      0.00000
     27      13.6011      0.00000
     28      13.6204      0.00000
     29      13.6204      0.00000
     30      15.8241      0.00000
     31      15.8268      0.00000
     32      15.8303      0.00000
     33      15.8320      0.00000
     34      15.8354      0.00000
     35      15.8364      0.00000
     36      16.9004      0.00000
     37      16.9023      0.00000
     38      16.9072      0.00000
     39      16.9565      0.00000
     40      16.9583      0.00000
     41      16.9636      0.00000
     42      16.9672      0.00000
     43      16.9710      0.00000
     44      16.9754      0.00000
     45      18.6511      0.00000
     46      18.6636      0.00000
     47      18.6690      0.00000
     48      18.6744      0.00000


--------------------------------------------------------------------------------------------------------


 soft charge-density along one line, spin component           1
         0         1         2         3         4         5         6         7         8         9
 total charge-density along one line
 
 pseudopotential strength for first ion, spin component:           1
 18.596  -0.001   0.000   0.000   0.000   0.000   0.000   0.000
 -0.001   0.006   0.000   0.000   0.000   0.000   0.000   0.000
  0.000   0.000   4.227   0.000   0.000  -0.005   0.000   0.000
  0.000   0.000   0.000   4.227   0.000   0.000  -0.005   0.000
  0.000   0.000   0.000   0.000   4.227   0.000   0.000  -0.005
  0.000   0.000  -0.005   0.000   0.000   0.005   0.000   0.000
  0.000   0.000   0.000  -0.005   0.000   0.000   0.005   0.000
  0.000   0.000   0.000   0.000  -0.005   0.000   0.000   0.005
 total augmentation occupancy for first ion, spin component:           1
  1.315  -1.112  -0.001   0.000  -0.002   0.002   0.000   0.003
 -1.112   1.058   0.000   0.000   0.000  -0.001   0.000  -0.002
 -0.001   0.000   1.122  -0.002   0.000  -0.805   0.002  -0.001
  0.000   0.000  -0.002   1.122  -0.001   0.002  -0.805   0.001
 -0.002   0.000   0.000  -0.001   1.122  -0.001   0.001  -0.804
  0.002  -0.001  -0.805   0.002  -0.001   0.652  -0.002   0.002
  0.000   0.000   0.002  -0.805   0.001  -0.002   0.651  -0.001
  0.003  -0.002  -0.001   0.001  -0.804   0.002  -0.001   0.652


----------------------------------------- Iteration    1(   8)  ---------------------------------------


    POTLOK:  cpu time    0.02: real time    0.02
    SETDIJ:  cpu time    0.02: real time    0.02
    EDDIAG:  cpu time    0.02: real time    0.02
  RMM-DIIS:  cpu time    0.02: real time    0.03
    ORTHCH:  cpu time    0.01: real time    0.01
       DOS:  cpu time    0.00: real time    0.00
    CHARGE:  cpu time    0.02: real time    0.02
    MIXING:  cpu time    0.00: real time    0.00
    --------------------------------------------
      LOOP:  cpu time    0.12: real time    0.13

 eigenvalue-minimisations  :    96
 total energy-change (2. order) :-0.3197144E-01  (-0.2164063E-02)
 number of electron      31.9999999 magnetization 
 augmentation part       -1.7275520 magnetization 

 Broyden mixing:
  rms(total) = 0.75204E-02    rms(broyden)= 0.75199E-02
  rms(prec ) = 0.18019E-01
  weight for this iteration     100.00

 eigenvalues of (default mixing * dielectric matrix)
  average eigenvalue GAMMA=   2.1166
  1.2612  2.8592  2.2295

 Free energy of the ion-electron system (eV)
  ---------------------------------------------------
  alpha Z        PSCENC =        12.68944982
  Ewald energy   TEWEN  =      -907.56815105
  -1/2 Hartree   DENC   =       -70.39518403
  -exchange  EXHF       =         0.00000000
  -V(xc)+E(xc)   XCENC  =       -72.96605510
  PAW double counting   =       307.35503915     -166.18203711
  entropy T*S    EENTRO =         0.00000000
  eigenvalues    EBANDS =        37.46900942
  atomic energy  EATOM  =       826.37398168
  ---------------------------------------------------
  free energy    TOTEN  =       -33.22394722 eV

  energy without entropy =      -33.22394722  energy(sigma->0) =      -33.22394722


--------------------------------------------------------------------------------------------------------




 average (electrostatic) potential at core
  the test charge radii are     0.9892
  (the norm of the test charge is              1.0000)
       1 -83.2481       2 -83.2466       3 -83.2488       4 -83.2535       5 -83.2483
       6 -83.2479       7 -83.2496       8 -83.2467
 
 
 
 E-fermi :   6.0355     XC(G=0):  -9.1505     alpha+bet :-11.7379


 k-point   1 :       0.0000    0.0000    0.0000
  band No.  band energies     occupation 
      1      -5.9632      2.00000
      2      -1.8892      2.00000
      3      -1.8823      2.00000
      4      -1.8779      2.00000
      5      -1.8767      2.00000
      6      -1.8711      2.00000
      7      -1.8687      2.00000
      8       3.0358      2.00000
      9       3.0361      2.00000
     10       3.0395      2.00000
     11       3.0401      2.00000
     12       3.0424      2.00000
     13       3.0444      2.00000
     14       5.9023      2.00000
     15       5.9101      2.00000
     16       5.9128      2.00000
     17       6.5714      0.00000
     18       6.5720      0.00000
     19       6.5756      0.00000
     20       6.5774      0.00000
     21       6.5790      0.00000
     22       6.5857      0.00000
     23       8.3687      0.00000
     24       8.3703      0.00000
     25       8.3749      0.00000
     26       9.0380      0.00000
     27      13.6064      0.00000
     28      13.6064      0.00000
     29      13.7782      0.00000
     30      15.8092      0.00000
     31      15.8119      0.00000
     32      15.8156      0.00000
     33      15.8176      0.00000
     34      15.8206      0.00000
     35      15.8219      0.00000
     36      16.9371      0.00000
     37      16.9391      0.00000
     38      16.9435      0.00000
     39      16.9631      0.00000
     40      16.9651      0.00000
     41      16.9700      0.00000
     42      16.9735      0.00000
     43      16.9777      0.00000
     44      16.9823      0.00000
     45      18.6859      0.00000
     46      18.7006      0.00000
     47      18.7073      0.00000
     48      18.7127      0.00000


--------------------------------------------------------------------------------------------------------


 soft charge-density along one line, spin component           1
         0         1         2         3         4         5         6         7         8         9
 total charge-density along one line
 
 pseudopotential strength for first ion, spin component:           1
 18.599  -0.001   0.000   0.000   0.000   0.000   0.000   0.000
 -0.001   0.006   0.000   0.000   0.000   0.000   0.000   0.000
  0.000   0.000   4.224   0.000   0.000  -0.005   0.000   0.000
  0.000   0.000   0.000   4.224   0.000   0.000  -0.005   0.000
  0.000   0.000   0.000   0.000   4.224   0.000   0.000  -0.005
  0.000   0.000  -0.005   0.000   0.000   0.005   0.000   0.000
  0.000   0.000   0.000  -0.005   0.000   0.000   0.005   0.000
  0.000   0.000   0.000   0.000  -0.005   0.000   0.000   0.005
 total augmentation occupancy for first ion, spin component:           1
  1.320  -1.092  -0.001   0.000  -0.002   0.001  -0.001   0.002
 -1.092   1.020   0.000   0.000   0.000  -0.001   0.000  -0.002
 -0.001   0.000   1.123  -0.002   0.000  -0.801   0.002  -0.001
  0.000   0.000  -0.002   1.123  -0.001   0.002  -0.801   0.001
 -0.002   0.000   0.000  -0.001   1.123  -0.001   0.001  -0.800
  0.001  -0.001  -0.801   0.002  -0.001   0.647  -0.002   0.001
 -0.001   0.000   0.002  -0.801   0.001  -0.002   0.647  -0.001
  0.002  -0.002  -0.001   0.001  -0.800   0.001  -0.001   0.646


----------------------------------------- Iteration    1(   9)  ---------------------------------------


    POTLOK:  cpu time    0.02: real time    0.02
    SETDIJ:  cpu time    0.02: real time    0.02
    EDDIAG:  cpu time    0.02: real time    0.02
  RMM-DIIS:  cpu time    0.05: real time    0.05
    ORTHCH:  cpu time    0.01: real time    0.01
       DOS:  cpu time    0.00: real time    0.00
    CHARGE:  cpu time    0.02: real time    0.02
    MIXING:  cpu time    0.00: real time    0.00
    --------------------------------------------
      LOOP:  cpu time    0.14: real time    0.15

 eigenvalue-minimisations  :   108
 total energy-change (2. order) :-0.1122554E-02  (-0.1254724E-03)
 number of electron      31.9999999 magnetization 
 augmentation part       -1.7274661 magnetization 

 Broyden mixing:
  rms(total) = 0.41739E-02    rms(broyden)= 0.41738E-02
  rms(prec ) = 0.68606E-02
  weight for this iteration     100.00

 eigenvalues of (default mixing * dielectric matrix)
  average eigenvalue GAMMA=   2.3047
  0.9883  3.2565  2.6859  2.2884

 Free energy of the ion-electron system (eV)
  ---------------------------------------------------
  alpha Z        PSCENC =        12.68944982
  Ewald energy   TEWEN  =      -907.56815105
  -1/2 Hartree   DENC   =       -70.79144413
  -exchange  EXHF       =         0.00000000
  -V(xc)+E(xc)   XCENC  =       -72.90694069
  PAW double counting   =       307.71230256     -166.54988361
  entropy T*S    EENTRO =         0.00000000
  eigenvalues    EBANDS =        37.81561564
  atomic energy  EATOM  =       826.37398168
  ---------------------------------------------------
  free energy    TOTEN  =       -33.22506978 eV

  energy without entropy =      -33.22506978  energy(sigma->0) =      -33.22506978


--------------------------------------------------------------------------------------------------------




 average (electrostatic) potential at core
  the test charge radii are     0.9892
  (the norm of the test charge is              1.0000)
       1 -83.2340       2 -83.2329       3 -83.2343       4 -83.2380       5 -83.2340
       6 -83.2338       7 -83.2350       8 -83.2328
 
 
 
 E-fermi :   6.0502     XC(G=0):  -9.1364     alpha+bet :-11.7379


 k-point   1 :       0.0000    0.0000    0.0000
  band No.  band energies     occupation 
      1      -5.9520      2.00000
      2      -1.8776      2.00000
      3      -1.8710      2.00000
      4      -1.8667      2.00000
      5      -1.8657      2.00000
      6      -1.8601      2.00000
      7      -1.8578      2.00000
      8       3.0458      2.00000
      9       3.0461      2.00000
     10       3.0493      2.00000
     11       3.0499      2.00000
     12       3.0522      2.00000
     13       3.0541      2.00000
     14       5.9144      2.00000
     15       5.9222      2.00000
     16       5.9249      2.00000
     17       6.5853      0.00000
     18       6.5859      0.00000
     19       6.5896      0.00000
     20       6.5914      0.00000
     21       6.5930      0.00000
     22       6.5997      0.00000
     23       8.3763      0.00000
     24       8.3779      0.00000
     25       8.3826      0.00000
     26       9.0525      0.00000
     27      13.6116      0.00000
     28      13.6116      0.00000
     29      13.8102      0.00000
     30      15.8198      0.00000
     31      15.8225      0.00000
     32      15.8262      0.00000
     33      15.8280      0.00000
     34      15.8312      0.00000
     35      15.8324      0.00000
     36      16.9471      0.00000
     37      16.9491      0.00000
     38      16.9535      0.00000
     39      16.9752      0.00000
     40      16.9772      0.00000
     41      16.9821      0.00000
     42      16.9856      0.00000
     43      16.9897      0.00000
     44      16.9942      0.00000
     45      18.7040      0.00000
     46      18.7185      0.00000
     47      18.7255      0.00000
     48      18.7312      0.00000


--------------------------------------------------------------------------------------------------------


 soft charge-density along one line, spin component           1
         0         1         2         3         4         5         6         7         8         9
 total charge-density along one line
 
 pseudopotential strength for first ion, spin component:           1
 18.598  -0.001   0.000   0.000   0.000   0.000   0.000   0.000
 -0.001   0.006   0.000   0.000   0.000   0.000   0.000   0.000
  0.000   0.000   4.224   0.000   0.000  -0.005   0.000   0.000
  0.000   0.000   0.000   4.224   0.000   0.000  -0.005   0.000
  0.000   0.000   0.000   0.000   4.224   0.000   0.000  -0.005
  0.000   0.000  -0.005   0.000   0.000   0.005   0.000   0.000
  0.000   0.000   0.000  -0.005   0.000   0.000   0.005   0.000
  0.000   0.000   0.000   0.000  -0.005   0.000   0.000   0.005
 total augmentation occupancy for first ion, spin component:           1
  1.320  -1.087  -0.001   0.000  -0.002   0.001  -0.001   0.002
 -1.087   1.012   0.000   0.000   0.000  -0.001   0.000  -0.002
 -0.001   0.000   1.123  -0.002   0.000  -0.801   0.002  -0.001
  0.000   0.000  -0.002   1.123  -0.001   0.002  -0.800   0.001
 -0.002   0.000   0.000  -0.001   1.122  -0.001   0.001  -0.800
  0.001  -0.001  -0.801   0.002  -0.001   0.647  -0.002   0.001
 -0.001   0.000   0.002  -0.800   0.001  -0.002   0.647  -0.001
  0.002  -0.002  -0.001   0.001  -0.800   0.001  -0.001   0.646


----------------------------------------- Iteration    1(  10)  ---------------------------------------


    POTLOK:  cpu time    0.02: real time    0.02
    SETDIJ:  cpu time    0.02: real time    0.02
    EDDIAG:  cpu time    0.02: real time    0.02
  RMM-DIIS:  cpu time    0.03: real time    0.03
    ORTHCH:  cpu time    0.01: real time    0.01
       DOS:  cpu time    0.00: real time    0.00
    CHARGE:  cpu time    0.02: real time    0.02
    MIXING:  cpu time    0.00: real time    0.00
    --------------------------------------------
      LOOP:  cpu time    0.13: real time    0.13

 eigenvalue-minimisations  :   104
 total energy-change (2. order) :-0.1885193E-03  (-0.2523780E-04)
 number of electron      31.9999999 magnetization 
 augmentation part       -1.7273358 magnetization 

 Broyden mixing:
  rms(total) = 0.50280E-03    rms(broyden)= 0.50240E-03
  rms(prec ) = 0.98860E-03
  weight for this iteration     100.00

 eigenvalues of (default mixing * dielectric matrix)
  average eigenvalue GAMMA=   2.0333
  3.0800  2.6109  2.1619  0.9809  1.3330

 Free energy of the ion-electron system (eV)
  ---------------------------------------------------
  alpha Z        PSCENC =        12.68944982
  Ewald energy   TEWEN  =      -907.56815105
  -1/2 Hartree   DENC   =       -70.84635310
  -exchange  EXHF       =         0.00000000
  -V(xc)+E(xc)   XCENC  =       -72.90975403
  PAW double counting   =       307.80332983     -166.64724470
  entropy T*S    EENTRO =         0.00000000
  eigenvalues    EBANDS =        37.87948324
  atomic energy  EATOM  =       826.37398168
  ---------------------------------------------------
  free energy    TOTEN  =       -33.22525830 eV

  energy without entropy =      -33.22525830  energy(sigma->0) =      -33.22525830


--------------------------------------------------------------------------------------------------------




 average (electrostatic) potential at core
  the test charge radii are     0.9892
  (the norm of the test charge is              1.0000)
       1 -83.2253       2 -83.2245       3 -83.2255       4 -83.2282       5 -83.2253
       6 -83.2251       7 -83.2260       8 -83.2244
 
 
 
 E-fermi :   6.0549     XC(G=0):  -9.1307     alpha+bet :-11.7379


 k-point   1 :       0.0000    0.0000    0.0000
  band No.  band energies     occupation 
      1      -5.9495      2.00000
      2      -1.8753      2.00000
      3      -1.8688      2.00000
      4      -1.8646      2.00000
      5      -1.8636      2.00000
      6      -1.8582      2.00000
      7      -1.8559      2.00000
      8       3.0476      2.00000
      9       3.0479      2.00000
     10       3.0510      2.00000
     11       3.0517      2.00000
     12       3.0538      2.00000
     13       3.0557      2.00000
     14       5.9166      2.00000
     15       5.9243      2.00000
     16       5.9270      2.00000
     17       6.5907      0.00000
     18       6.5914      0.00000
     19       6.5950      0.00000
     20       6.5968      0.00000
     21       6.5984      0.00000
     22       6.6052      0.00000
     23       8.3773      0.00000
     24       8.3789      0.00000
     25       8.3835      0.00000
     26       9.0562      0.00000
     27      13.6116      0.00000
     28      13.6117      0.00000
     29      13.8264      0.00000
     30      15.8217      0.00000
     31      15.8244      0.00000
     32      15.8280      0.00000
     33      15.8297      0.00000
     34      15.8331      0.00000
     35      15.8343      0.00000
     36      16.9512      0.00000
     37      16.9531      0.00000
     38      16.9575      0.00000
     39      16.9781      0.00000
     40      16.9801      0.00000
     41      16.9848      0.00000
     42      16.9883      0.00000
     43      16.9924      0.00000
     44      16.9969      0.00000
     45      18.7118      0.00000
     46      18.7259      0.00000
     47      18.7324      0.00000
     48      18.7382      0.00000


--------------------------------------------------------------------------------------------------------


 soft charge-density along one line, spin component           1
         0         1         2         3         4         5         6         7         8         9
 total charge-density along one line
 
 pseudopotential strength for first ion, spin component:           1
 18.597  -0.001   0.000   0.000   0.000   0.000   0.000   0.000
 -0.001   0.006   0.000   0.000   0.000   0.000   0.000   0.000
  0.000   0.000   4.224   0.000   0.000  -0.005   0.000   0.000
  0.000   0.000   0.000   4.224   0.000   0.000  -0.005   0.000
  0.000   0.000   0.000   0.000   4.224   0.000   0.000  -0.005
  0.000   0.000  -0.005   0.000   0.000   0.005   0.000   0.000
  0.000   0.000   0.000  -0.005   0.000   0.000   0.005   0.000
  0.000   0.000   0.000   0.000  -0.005   0.000   0.000   0.005
 total augmentation occupancy for first ion, spin component:           1
  1.320  -1.087  -0.001   0.000  -0.002   0.001  -0.001   0.002
 -1.087   1.012   0.000   0.000   0.000  -0.001   0.000  -0.002
 -0.001   0.000   1.123  -0.002   0.000  -0.801   0.002  -0.001
  0.000   0.000  -0.002   1.123  -0.001   0.002  -0.801   0.001
 -0.002   0.000   0.000  -0.001   1.122  -0.001   0.001  -0.801
  0.001  -0.001  -0.801   0.002  -0.001   0.648  -0.002   0.001
 -0.001   0.000   0.002  -0.801   0.001  -0.002   0.648  -0.001
  0.002  -0.002  -0.001   0.001  -0.801   0.001  -0.001   0.647


----------------------------------------- Iteration    1(  11)  ---------------------------------------


    POTLOK:  cpu time    0.02: real time    0.02
    SETDIJ:  cpu time    0.02: real time    0.02
    EDDIAG:  cpu time    0.02: real time    0.02
  RMM-DIIS:  cpu time    0.03: real time    0.03
    ORTHCH:  cpu time    0.01: real time    0.01
       DOS:  cpu time    0.00: real time    0.00
    CHARGE:  cpu time    0.03: real time    0.03
    MIXING:  cpu time    0.00: real time    0.00
    --------------------------------------------
      LOOP:  cpu time    0.13: real time    0.13

 eigenvalue-minimisations  :   115
 total energy-change (2. order) : 0.4461784E-05  (-0.3715658E-06)
 number of electron      31.9999999 magnetization 
 augmentation part       -1.7274425 magnetization 

 Broyden mixing:
  rms(total) = 0.16788E-03    rms(broyden)= 0.16784E-03
  rms(prec ) = 0.32637E-03
  weight for this iteration     100.00

 eigenvalues of (default mixing * dielectric matrix)
  average eigenvalue GAMMA=   1.9827
  3.1984  2.6953  2.1044  1.9515  0.9732  0.9732

 Free energy of the ion-electron system (eV)
  ---------------------------------------------------
  alpha Z        PSCENC =        12.68944982
  Ewald energy   TEWEN  =      -907.56815105
  -1/2 Hartree   DENC   =       -70.82548367
  -exchange  EXHF       =         0.00000000
  -V(xc)+E(xc)   XCENC  =       -72.91110450
  PAW double counting   =       307.73120911     -166.57227967
  entropy T*S    EENTRO =         0.00000000
  eigenvalues    EBANDS =        37.85712445
  atomic energy  EATOM  =       826.37398168
  ---------------------------------------------------
  free energy    TOTEN  =       -33.22525384 eV

  energy without entropy =      -33.22525384  energy(sigma->0) =      -33.22525384


--------------------------------------------------------------------------------------------------------




 average (electrostatic) potential at core
  the test charge radii are     0.9892
  (the norm of the test charge is              1.0000)
       1 -83.2276       2 -83.2266       3 -83.2279       4 -83.2312       5 -83.2276
       6 -83.2274       7 -83.2285       8 -83.2265
 
 
 
 E-fermi :   6.0544     XC(G=0):  -9.1315     alpha+bet :-11.7379


 k-point   1 :       0.0000    0.0000    0.0000
  band No.  band energies     occupation 
      1      -5.9502      2.00000
      2      -1.8762      2.00000
      3      -1.8696      2.00000
      4      -1.8653      2.00000
      5      -1.8643      2.00000
      6      -1.8588      2.00000
      7      -1.8565      2.00000
      8       3.0469      2.00000
      9       3.0472      2.00000
     10       3.0504      2.00000
     11       3.0510      2.00000
     12       3.0532      2.00000
     13       3.0551      2.00000
     14       5.9158      2.00000
     15       5.9235      2.00000
     16       5.9262      2.00000
     17       6.5900      0.00000
     18       6.5906      0.00000
     19       6.5942      0.00000
     20       6.5961      0.00000
     21       6.5977      0.00000
     22       6.6044      0.00000
     23       8.3768      0.00000
     24       8.3785      0.00000
     25       8.3831      0.00000
     26       9.0552      0.00000
     27      13.6114      0.00000
     28      13.6114      0.00000
     29      13.8246      0.00000
     30      15.8210      0.00000
     31      15.8236      0.00000
     32      15.8273      0.00000
     33      15.8291      0.00000
     34      15.8323      0.00000
     35      15.8335      0.00000
     36      16.9506      0.00000
     37      16.9526      0.00000
     38      16.9569      0.00000
     39      16.9774      0.00000
     40      16.9793      0.00000
     41      16.9841      0.00000
     42      16.9876      0.00000
     43      16.9917      0.00000
     44      16.9963      0.00000
     45      18.7140      0.00000
     46      18.7265      0.00000
     47      18.7320      0.00000
     48      18.7379      0.00000


--------------------------------------------------------------------------------------------------------


 soft charge-density along one line, spin component           1
         0         1         2         3         4         5         6         7         8         9
 total charge-density along one line
 
 pseudopotential strength for first ion, spin component:           1
 18.597  -0.001   0.000   0.000   0.000   0.000   0.000   0.000
 -0.001   0.006   0.000   0.000   0.000   0.000   0.000   0.000
  0.000   0.000   4.224   0.000   0.000  -0.005   0.000   0.000
  0.000   0.000   0.000   4.224   0.000   0.000  -0.005   0.000
  0.000   0.000   0.000   0.000   4.224   0.000   0.000  -0.005
  0.000   0.000  -0.005   0.000   0.000   0.005   0.000   0.000
  0.000   0.000   0.000  -0.005   0.000   0.000   0.005   0.000
  0.000   0.000   0.000   0.000  -0.005   0.000   0.000   0.005
 total augmentation occupancy for first ion, spin component:           1
  1.320  -1.086  -0.001   0.000  -0.002   0.001  -0.001   0.002
 -1.086   1.011   0.000   0.000   0.000  -0.001   0.000  -0.002
 -0.001   0.000   1.123  -0.002   0.000  -0.801   0.002  -0.001
  0.000   0.000  -0.002   1.123  -0.001   0.002  -0.801   0.001
 -0.002   0.000   0.000  -0.001   1.122  -0.001   0.001  -0.801
  0.001  -0.001  -0.801   0.002  -0.001   0.648  -0.002   0.001
 -0.001   0.000   0.002  -0.801   0.001  -0.002   0.648  -0.001
  0.002  -0.002  -0.001   0.001  -0.801   0.001  -0.001   0.647


----------------------------------------- Iteration    1(  12)  ---------------------------------------


    POTLOK:  cpu time    0.02: real time    0.02
    SETDIJ:  cpu time    0.02: real time    0.02
    EDDIAG:  cpu time    0.02: real time    0.02
  RMM-DIIS:  cpu time    0.03: real time    0.03
    ORTHCH:  cpu time    0.01: real time    0.01
       DOS:  cpu time    0.00: real time    0.00
    CHARGE:  cpu time    0.02: real time    0.02
    MIXING:  cpu time    0.00: real time    0.00
    --------------------------------------------
      LOOP:  cpu time    0.12: real time    0.13

 eigenvalue-minimisations  :   127
 total energy-change (2. order) :-0.6988142E-06  (-0.5657373E-07)
 number of electron      31.9999999 magnetization 
 augmentation part       -1.7274290 magnetization 

 Broyden mixing:
  rms(total) = 0.56934E-04    rms(broyden)= 0.56902E-04
  rms(prec ) = 0.82019E-04
  weight for this iteration     100.00

 eigenvalues of (default mixing * dielectric matrix)
  average eigenvalue GAMMA=   1.9885
  3.1957  2.7301  2.4399  2.0894  1.5030  1.0006  0.9610

 Free energy of the ion-electron system (eV)
  ---------------------------------------------------
  alpha Z        PSCENC =        12.68944982
  Ewald energy   TEWEN  =      -907.56815105
  -1/2 Hartree   DENC   =       -70.83002751
  -exchange  EXHF       =         0.00000000
  -V(xc)+E(xc)   XCENC  =       -72.91103348
  PAW double counting   =       307.73879630     -166.58006747
  entropy T*S    EENTRO =         0.00000000
  eigenvalues    EBANDS =        37.86179717
  atomic energy  EATOM  =       826.37398168
  ---------------------------------------------------
  free energy    TOTEN  =       -33.22525453 eV

  energy without entropy =      -33.22525453  energy(sigma->0) =      -33.22525453


--------------------------------------------------------------------------------------------------------




 average (electrostatic) potential at core
  the test charge radii are     0.9892
  (the norm of the test charge is              1.0000)
       1 -83.2270       2 -83.2260       3 -83.2274       4 -83.2307       5 -83.2270
       6 -83.2268       7 -83.2280       8 -83.2259
 
 
 
 E-fermi :   6.0548     XC(G=0):  -9.1312     alpha+bet :-11.7379


 k-point   1 :       0.0000    0.0000    0.0000
  band No.  band energies     occupation 
      1      -5.9500      2.00000
      2      -1.8761      2.00000
      3      -1.8694      2.00000
      4      -1.8652      2.00000
      5      -1.8641      2.00000
      6      -1.8586      2.00000
      7      -1.8563      2.00000
      8       3.0470      2.00000
      9       3.0473      2.00000
     10       3.0505      2.00000
     11       3.0512      2.00000
     12       3.0534      2.00000
[...]
    MIXING:  cpu time    0.00: real time    0.00
    --------------------------------------------
      LOOP:  cpu time    0.16: real time    0.16

 Broyden mixing:
  rms(total) = 0.69633E-02    rms(broyden)= 0.69630E-02
  rms(prec ) = 0.11943E-01
  weight for this iteration     100.00

 eigenvalues of (default mixing * dielectric matrix)
  average eigenvalue GAMMA=   2.0749
  3.0328  2.4871  1.1231  1.6568

 Free energy of the ion-electron system (eV)
  ---------------------------------------------------
  -1/2 Hartree   DENC   =        -4.61396505
  -V(xc)+E(xc)   XCENC  =         0.94964112
  PAW double counting   =         3.10053735       -3.14990249
  entropy T*S    EENTRO =         0.00000000
  eigenvalues    EBANDS =       -24.52440033
  ---------------------------------------------------
  free energy    TOTEN  =       -28.23808941 eV

  energy without entropy =      -28.23808941


----------------------------------------- Iteration    3(   7)  ---------------------------------------


   POT+DIJ:  cpu time    0.08: real time    0.08
    HAMIL1:  cpu time    0.01: real time    0.01
    LRDIAG:  cpu time    0.01: real time    0.01
    LRDIIS:  cpu time    0.02: real time    0.02
    LRDIAG:  cpu time    0.01: real time    0.01
    MIXING:  cpu time    0.00: real time    0.00
    --------------------------------------------
      LOOP:  cpu time    0.16: real time    0.16

 Broyden mixing:
  rms(total) = 0.54109E-03    rms(broyden)= 0.54012E-03
  rms(prec ) = 0.10116E-02
  weight for this iteration     100.00

 eigenvalues of (default mixing * dielectric matrix)
  average eigenvalue GAMMA=   1.9651
  3.0919  2.4038  1.1154  1.6749  1.5392

 Free energy of the ion-electron system (eV)
  ---------------------------------------------------
  -1/2 Hartree   DENC   =        -4.62536260
  -V(xc)+E(xc)   XCENC  =         0.95717507
  PAW double counting   =         3.06382194       -3.11263598
  entropy T*S    EENTRO =         0.00000000
  eigenvalues    EBANDS =       -24.56018616
  ---------------------------------------------------
  free energy    TOTEN  =       -28.27718773 eV

  energy without entropy =      -28.27718773


----------------------------------------- Iteration    3(   8)  ---------------------------------------


   POT+DIJ:  cpu time    0.08: real time    0.09
    HAMIL1:  cpu time    0.00: real time    0.01
    LRDIAG:  cpu time    0.01: real time    0.01
    LRDIIS:  cpu time    0.02: real time    0.02
    LRDIAG:  cpu time    0.01: real time    0.01
    MIXING:  cpu time    0.00: real time    0.00
    --------------------------------------------
      LOOP:  cpu time    0.16: real time    0.17

 Broyden mixing:
  rms(total) = 0.27755E-03    rms(broyden)= 0.27747E-03
  rms(prec ) = 0.40984E-03
  weight for this iteration     100.00

 eigenvalues of (default mixing * dielectric matrix)
  average eigenvalue GAMMA=   1.9148
  3.0881  2.4740  2.0635  1.6656  1.1300  1.0677

 Free energy of the ion-electron system (eV)
  ---------------------------------------------------
  -1/2 Hartree   DENC   =        -4.62892586
  -V(xc)+E(xc)   XCENC  =         0.95809745
  PAW double counting   =         3.06789871       -3.11678094
  entropy T*S    EENTRO =         0.00000000
  eigenvalues    EBANDS =       -24.56111919
  ---------------------------------------------------
  free energy    TOTEN  =       -28.28082983 eV

  energy without entropy =      -28.28082983


----------------------------------------- Iteration    3(   9)  ---------------------------------------


   POT+DIJ:  cpu time    0.08: real time    0.08
    HAMIL1:  cpu time    0.01: real time    0.01
    LRDIAG:  cpu time    0.01: real time    0.01
    LRDIIS:  cpu time    0.02: real time    0.02
    LRDIAG:  cpu time    0.01: real time    0.01
    MIXING:  cpu time    0.00: real time    0.00
    --------------------------------------------
      LOOP:  cpu time    0.16: real time    0.16

 Broyden mixing:
  rms(total) = 0.10163E-03    rms(broyden)= 0.10161E-03
  rms(prec ) = 0.15453E-03
  weight for this iteration     100.00

 eigenvalues of (default mixing * dielectric matrix)
  average eigenvalue GAMMA=   1.8933
  3.1764  2.7387  2.3967  1.6749  1.2753  1.1013  0.8901

 Free energy of the ion-electron system (eV)
  ---------------------------------------------------
  -1/2 Hartree   DENC   =        -4.62861751
  -V(xc)+E(xc)   XCENC  =         0.95803591
  PAW double counting   =         3.07006339       -3.11898296
  entropy T*S    EENTRO =         0.00000000
  eigenvalues    EBANDS =       -24.56137746
  ---------------------------------------------------
  free energy    TOTEN  =       -28.28087863 eV

  energy without entropy =      -28.28087863


----------------------------------------- Iteration    3(  10)  ---------------------------------------


   POT+DIJ:  cpu time    0.08: real time    0.08
    HAMIL1:  cpu time    0.00: real time    0.01
    LRDIAG:  cpu time    0.01: real time    0.01
    LRDIIS:  cpu time    0.02: real time    0.02
    LRDIAG:  cpu time    0.01: real time    0.01
    MIXING:  cpu time    0.00: real time    0.00
    --------------------------------------------
      LOOP:  cpu time    0.16: real time    0.16

 Broyden mixing:
  rms(total) = 0.14484E-04    rms(broyden)= 0.14471E-04
  rms(prec ) = 0.23726E-04
  weight for this iteration     100.00

 eigenvalues of (default mixing * dielectric matrix)
  average eigenvalue GAMMA=   1.8360
  3.1952  2.7696  2.4459  1.6715  1.4348  0.9810  1.1245  1.0651

 Free energy of the ion-electron system (eV)
  ---------------------------------------------------
  -1/2 Hartree   DENC   =        -4.62869262
  -V(xc)+E(xc)   XCENC  =         0.95807561
  PAW double counting   =         3.07116605       -3.12010478
  entropy T*S    EENTRO =         0.00000000
  eigenvalues    EBANDS =       -24.56162984
  ---------------------------------------------------
  free energy    TOTEN  =       -28.28118558 eV

  energy without entropy =      -28.28118558


----------------------------------------- Iteration    3(  11)  ---------------------------------------


   POT+DIJ:  cpu time    0.08: real time    0.08
    HAMIL1:  cpu time    0.00: real time    0.01
    LRDIAG:  cpu time    0.01: real time    0.01
    LRDIIS:  cpu time    0.02: real time    0.02
    LRDIAG:  cpu time    0.01: real time    0.01
    MIXING:  cpu time    0.00: real time    0.00
    --------------------------------------------
      LOOP:  cpu time    0.16: real time    0.16

 Broyden mixing:
  rms(total) = 0.39120E-05    rms(broyden)= 0.39100E-05
  rms(prec ) = 0.58146E-05
  weight for this iteration     100.00

 eigenvalues of (default mixing * dielectric matrix)
  average eigenvalue GAMMA=   1.8819
  3.2025  2.7974  2.4416  2.3111  1.6722  1.3965  1.1087  1.0037  1.0037

 Free energy of the ion-electron system (eV)
  ---------------------------------------------------
  -1/2 Hartree   DENC   =        -4.62870333
  -V(xc)+E(xc)   XCENC  =         0.95807323
  PAW double counting   =         3.07124497       -3.12018503
  entropy T*S    EENTRO =         0.00000000
  eigenvalues    EBANDS =       -24.56161012
  ---------------------------------------------------
  free energy    TOTEN  =       -28.28118028 eV

  energy without entropy =      -28.28118028


----------------------------------------- Iteration    3(  12)  ---------------------------------------


   POT+DIJ:  cpu time    0.08: real time    0.08
    HAMIL1:  cpu time    0.01: real time    0.01
    LRDIAG:  cpu time    0.01: real time    0.01
    LRDIIS:  cpu time    0.02: real time    0.02
    LRDIAG:  cpu time    0.01: real time    0.01
    MIXING:  cpu time    0.00: real time    0.00
    --------------------------------------------
      LOOP:  cpu time    0.16: real time    0.16

 Broyden mixing:
  rms(total) = 0.10370E-05    rms(broyden)= 0.10366E-05
  rms(prec ) = 0.15539E-05
  weight for this iteration     100.00

 eigenvalues of (default mixing * dielectric matrix)
  average eigenvalue GAMMA=   1.8398
  3.2051  2.8029  2.4540  2.4540  1.6711  1.3449  1.3449  1.0058  1.0058  1.1097

 Free energy of the ion-electron system (eV)
  ---------------------------------------------------
  -1/2 Hartree   DENC   =        -4.62870393
  -V(xc)+E(xc)   XCENC  =         0.95807309
  PAW double counting   =         3.07116554       -3.12010426
  entropy T*S    EENTRO =         0.00000000
  eigenvalues    EBANDS =       -24.56161156
  ---------------------------------------------------
  free energy    TOTEN  =       -28.28118113 eV

  energy without entropy =      -28.28118113


----------------------------------------- Iteration    3(  13)  ---------------------------------------


   POT+DIJ:  cpu time    0.08: real time    0.08
    HAMIL1:  cpu time    0.00: real time    0.01
    LRDIAG:  cpu time    0.01: real time    0.01
    LRDIIS:  cpu time    0.02: real time    0.02
    LRDIAG:  cpu time    0.01: real time    0.01
    MIXING:  cpu time    0.00: real time    0.00
    --------------------------------------------
      LOOP:  cpu time    0.16: real time    0.16

 Broyden mixing:
  rms(total) = 0.32451E-06    rms(broyden)= 0.32444E-06
  rms(prec ) = 0.57906E-06
  weight for this iteration     100.00

 eigenvalues of (default mixing * dielectric matrix)
  average eigenvalue GAMMA=   1.8296
  3.2078  2.8329  2.6103  2.4412  1.8276  1.6708  1.3501  1.1206  0.9996  0.9996
  1.0651

 Free energy of the ion-electron system (eV)
  ---------------------------------------------------
  -1/2 Hartree   DENC   =        -4.62870493
  -V(xc)+E(xc)   XCENC  =         0.95807321
  PAW double counting   =         3.07114704       -3.12008543
  entropy T*S    EENTRO =         0.00000000
  eigenvalues    EBANDS =       -24.56161143
  ---------------------------------------------------
  free energy    TOTEN  =       -28.28118154 eV

  energy without entropy =      -28.28118154


------------------------ aborting loop because EDIFF is reached ----------------------------------------


 change of polarisation eV/A/(eV/A) component  3 :    -0.068     0.108    50.523
 dielectric tensor                  component  3 :    -0.075     0.119    56.859


--------------------------------------------------------------------------------------------------------


    FORLOC:  cpu time    0.00: real time    0.00
    FORNL :  cpu time    0.09: real time    0.09
    STRESS:  cpu time    0.30: real time    0.30
    FORCOR:  cpu time    0.02: real time    0.02
    FORLOC:  cpu time    0.00: real time    0.00
    FORNL :  cpu time    0.09: real time    0.09
    STRESS:  cpu time    0.30: real time    0.30
    FORCOR:  cpu time    0.02: real time    0.02
    FORNLD:  cpu time    0.01: real time    0.01

 PIEZOELECTRIC TENSOR FIELD DIRECTION 3  (e Angst)
 -----------------------------------------------------------------------------
     0.00194  0.00324  0.00442           (  0.00000  0.00001  0.00000)
     0.00323  0.00562  0.00060           (  0.00001  0.00004  0.00001)
     0.00442  0.00060 -0.00675           (  0.00000  0.00001 -0.00002)

 PIEZOELECTRIC TENSOR FIELD DIRECTION 3  (C/m^2)
 -----------------------------------------------------------------------------
     0.00019  0.00032  0.00043
     0.00032  0.00055  0.00006
     0.00043  0.00006 -0.00066


      POSITION         DIRECTION 3           BORN EFFECTIVE CHARGE    (rigid.aug.   ionic)
 -----------------------------------------------------------------------------------------
      5.46910      0.00001      0.00343     0.07877  0.16180 -5.78638 (  0.21593  4.00000)
      1.36751      1.37093      1.36968    -0.00973 -0.09003 -5.78328 (  0.21592  4.00000)
      2.73843      2.73718      5.46818    -0.04270 -0.03779 -5.78088 (  0.21593  4.00000)
      4.10468      4.10068      1.36609     0.04060  0.05351 -5.70280 (  0.21596  4.00000)
      2.73318      5.46859      2.73171    -0.07566  0.03653 -5.77936 (  0.21593  4.00000)
      4.10109      1.36421      4.10266     0.01185 -0.06204 -5.79926 (  0.21592  4.00000)
      5.46671      2.73516      2.73572     0.04618 -0.16941 -5.76192 (  0.21593  4.00000)
      1.36766      4.10322      4.10235    -0.03536  0.08146 -5.81420 (  0.21591  4.00000)
 -----------------------------------------------------------------------------------------
    total drift (improves with k-points):   0.01395 -0.02598-46.20808




--------------------------------------------------------------------------------------------------------


  LATTYP: Found a simple cubic cell.
 ALAT       =     5.4700000000
  
  Lattice vectors:
  
 A1 = (   5.4700000000,   0.0000000000,   0.0000000000)
 A2 = (   0.0000000000,   5.4700000000,   0.0000000000)
 A3 = (   0.0000000000,   0.0000000000,   5.4700000000)


Analysis of symmetry for initial positions (statically):
=====================================================================
 Subroutine PRICEL returns:
 Original cell was already a primitive cell.
 

 Routine SETGRP: Setting up the symmetry group for a 
 simple cubic supercell.


 Subroutine GETGRP returns: Found  1 space group operations
 (whereof  1 operations were pure point group operations)
 out of a pool of 48 trial point group operations.


The static configuration has the point symmetry C_1 .


Analysis of symmetry for dynamics (positions and initial velocities):
=====================================================================
 Subroutine PRICEL returns:
 Original cell was already a primitive cell.
 

 Routine SETGRP: Setting up the symmetry group for a 
 simple cubic supercell.


 Subroutine GETGRP returns: Found  1 space group operations
 (whereof  1 operations were pure point group operations)
 out of a pool of 48 trial point group operations.


The dynamic configuration has the point symmetry C_1 .


 MACROSCOPIC STATIC DIELECTRIC TENSOR (including local field effects in DFT)
 ------------------------------------------------------
          56.868521     0.050130    -0.074705
           0.050133    56.843672     0.119139
          -0.074704     0.119138    56.859401
 ------------------------------------------------------



--------------------------------------------------------------------------------------------------------


  LATTYP: Found a simple cubic cell.
 ALAT       =     5.4700000000
  
  Lattice vectors:
  
 A1 = (   5.4700000000,   0.0000000000,   0.0000000000)
 A2 = (   0.0000000000,   5.4700000000,   0.0000000000)
 A3 = (   0.0000000000,   0.0000000000,   5.4700000000)


Analysis of symmetry for initial positions (statically):
=====================================================================
 Subroutine PRICEL returns:
 Original cell was already a primitive cell.
 

 Routine SETGRP: Setting up the symmetry group for a 
 simple cubic supercell.


 Subroutine GETGRP returns: Found  1 space group operations
 (whereof  1 operations were pure point group operations)
 out of a pool of 48 trial point group operations.


The static configuration has the point symmetry C_1 .


Analysis of symmetry for dynamics (positions and initial velocities):
=====================================================================
 Subroutine PRICEL returns:
 Original cell was already a primitive cell.
 

 Routine SETGRP: Setting up the symmetry group for a 
 simple cubic supercell.


 Subroutine GETGRP returns: Found  1 space group operations
 (whereof  1 operations were pure point group operations)
 out of a pool of 48 trial point group operations.


The dynamic configuration has the point symmetry C_1 .
 
 KPOINTS: Automatic mesh                          

Automatic generation of k-mesh.
Space group operators:
 irot       det(A)        alpha          n_x          n_y          n_z        tau_x        tau_y        tau_z
    1     1.000000     0.000001     1.000000     0.000000     0.000000     0.000000     0.000000     0.000000
 
 Subroutine IBZKPT returns following result:
 ===========================================
 
 Found      1 irreducible k-points:
 
 Following reciprocal coordinates:
            Coordinates               Weight
  0.000000  0.000000  0.000000      1.000000
 
 Following cartesian coordinates:
            Coordinates               Weight
  0.000000  0.000000  0.000000      1.000000
 


--------------------------------------------------------------------------------------------------------




 MACROSCOPIC STATIC DIELECTRIC TENSOR (including local field effects in DFT)
 ------------------------------------------------------
          56.868521     0.050130    -0.074705
           0.050133    56.843672     0.119139
          -0.074704     0.119138    56.859401
 ------------------------------------------------------


 PIEZOELECTRIC TENSOR  for field in x, y, z        (e  Angst)
          XX          YY          ZZ          XY          YZ          ZX
  --------------------------------------------------------------------------------
  x     0.00666    -0.00456     0.00524    -0.00227    -0.00103    -0.00516
  y     0.00666    -0.00056    -0.00479     0.00022    -0.00333    -0.00039
  z     0.00194     0.00562    -0.00675     0.00323     0.00060     0.00442

 PIEZOELECTRIC TENSOR  for field in x, y, z        (C/m^2)
          XX          YY          ZZ          XY          YZ          ZX
  --------------------------------------------------------------------------------
  x     0.00065    -0.00045     0.00051    -0.00022    -0.00010    -0.00051
  y     0.00065    -0.00006    -0.00047     0.00002    -0.00033    -0.00004
  z     0.00019     0.00055    -0.00066     0.00032     0.00006     0.00043
 
 BORN EFFECTIVE CHARGES (in e, cummulative output)
 -------------------------------------------------
 ion    1
    1    -5.77871    -0.04012    -0.02493
    2     0.07315    -5.78367    -0.11298
    3     0.07877     0.16180    -5.78638
 ion    2
    1    -5.81714     0.05132    -0.10613
    2    -0.02136    -5.81078     0.04548
    3    -0.00973    -0.09003    -5.78328
 ion    3
    1    -5.77953     0.03575     0.04726
    2    -0.07572    -5.77143     0.03248
    3    -0.04270    -0.03779    -5.78088
 ion    4
    1    -5.70168    -0.05058    -0.02448
    2     0.02032    -5.70791    -0.07425
    3     0.04060     0.05351    -5.70280
 ion    5
    1    -5.78635    -0.11634     0.02762
    2     0.02624    -5.78456    -0.03610
    3    -0.07566     0.03653    -5.77936
 ion    6
    1    -5.76519     0.14508     0.10789
    2    -0.13303    -5.79698     0.06767
    3     0.01185    -0.06204    -5.79926
 ion    7
    1    -5.76167     0.11552    -0.04286
    2    -0.02783    -5.76195     0.10553
    3     0.04618    -0.16941    -5.76192
 ion    8
    1    -5.81850    -0.14864     0.02995
    2     0.13025    -5.78841    -0.05357
    3    -0.03536     0.08146    -5.81420


--------------------------------------------------------------------------------------------------------


     LOOP+:  cpu time   19.79: real time   20.34
    4ORBIT:  cpu time    0.00: real time    0.00

 total amount of memory used by VASP on root node    32224. kBytes
========================================================================

   base      :      30000. kBytes
   nonl-proj :        202. kBytes
   fftplans  :        782. kBytes
   grid      :       1198. kBytes
   one-center:         24. kBytes
   wavefun   :         18. kBytes
 
  
  
 General timing and accounting informations for this job:
 ========================================================
  
                  Total CPU time used (sec):       20.773
                            User time (sec):       16.411
                          System time (sec):        4.362
                         Elapsed time (sec):       23.167
  
                   Maximum memory used (kb):       58512.
                   Average memory used (kb):           0.
  
                          Minor page faults:       207649
                          Major page faults:            0
                 Voluntary context switches:         1441
