 vasp.5.3.3 18Dez12 (build Jan  9 2014 12:00:49) complex                        
  
 executed on             LinuxIFC date 2014.01.29  10:07:28
 running on   48 total cores
 distrk:  each k-point on   48 cores,    1 groups
 distr:  one band on NCORES_PER_BAND=   1 cores,   48 groups


--------------------------------------------------------------------------------------------------------


 INCAR:
 POTCAR:    PAW Si                                

 ----------------------------------------------------------------------------- 
|                                                                             |
|           W    W    AA    RRRRR   N    N  II  N    N   GGGG   !!!           |
|           W    W   A  A   R    R  NN   N  II  NN   N  G    G  !!!           |
|           W    W  A    A  R    R  N N  N  II  N N  N  G       !!!           |
|           W WW W  AAAAAA  RRRRR   N  N N  II  N  N N  G  GGG   !            |
|           WW  WW  A    A  R   R   N   NN  II  N   NN  G    G                |
|           W    W  A    A  R    R  N    N  II  N    N   GGGG   !!!           |
|                                                                             |
|      For optimal performance we recommend that you set                      |
|        NPAR = 4 - approx SQRT( number of cores)                             |
|      (number of cores/NPAR must be integer)                                 |
|      This setting will greatly improve the performance of VASP for DFT.     |
|      The default NPAR=number of cores might be grossly inefficient          |
|      on modern multi-core architectures or massively parallel machines.     |
|      Do your own testing.                                                   |
|      Unfortunately you need to use the default for hybrid, GW and RPA       |
|      calculations.                                                          |
|                                                                             |
 ----------------------------------------------------------------------------- 

 POTCAR:    PAW Si                                
   VRHFIN =Si: s2p2                                                             
   LEXCH  = 91                                                                  
   EATOM  =   103.3076 eV,    7.5929 Ry                                         
                                                                                
   TITEL  = PAW Si                                                              
   LULTRA =        F    use ultrasoft PP ?                                      
   IUNSCR =        1    unscreen: 0-lin 1-nonlin 2-no                           
   RPACOR =    1.500    partial core radius                                     
   POMASS =   28.085; ZVAL   =    4.000    mass and valenz                      
   RCORE  =    1.900    outmost cutoff radius                                   
   RWIGS  =    2.480; RWIGS  =    1.312    wigner-seitz radius (au A)           
   ENMAX  =  245.435; ENMIN  =  184.076 eV                                      
   ICORE  =        2    local potential                                         
   LCOR   =        T    correct aug charges                                     
   LPAW   =        T    paw PP                                                  
   EAUG   =  322.069                                                            
   DEXC   =    -.001                                                            
   RMAX   =    2.943    core radius for proj-oper                               
   RAUG   =    1.300    factor for augmentation sphere                          
   RDEP   =    1.993    core radius for depl-charge                             
   QCUT   =   -4.247; QGAM   =    8.494    optimization parameters              
                                                                                
   Description                                                                  
     l     E      TYP  RCUT    TYP  RCUT                                        
     0   .000     23  1.900                                                     
     0   .000     23  1.900                                                     
     1   .000     23  1.900                                                     
     1   .000     23  1.900                                                     
     2   .000      7  1.900                                                     
  local pseudopotential read in
  partial core-charges read in
  atomic valenz-charges read in
  non local Contribution for L=           0  read in
    real space projection operators read in
  non local Contribution for L=           0  read in
    real space projection operators read in
  non local Contribution for L=           1  read in
    real space projection operators read in
  non local Contribution for L=           1  read in
    real space projection operators read in
    PAW grid and wavefunctions read in
 
   number of l-projection  operators is LMAX  =           4
   number of lm-projection operators is LMMAX =           8
 
  PAW Si                                :
 energy of atom  1       EATOM= -103.3076
 kinetic energy error for atom=    0.0109 (will be added to EATOM!!)
 
 
 POSCAR: OUTCAR.0016.+1.out 1.0e-02              
  positions in cartesian coordinates
  No initial velocities read in
 exchange correlation table for  LEXCH =        7
   RHO(1)=    0.500       N(1)  =     2000
   RHO(2)=  100.500       N(2)  =     4000

 VTST: version 3.0c, (01/09/14)

 CHAIN: initializing optimizer
 
 OPT: Using VASP Dynamics algorithm
 CHAIN: Read ICHAIN            0
 
 POSCAR: OUTCAR.0016.+1.out 1.0e-02              
  positions in cartesian coordinates
  No initial velocities read in
 


--------------------------------------------------------------------------------------------------------


 ion  position               nearest neighbor table
   1  0.000  0.999  1.000-   8 2.36   2 2.37   4 2.37   6 2.37
   2  0.249  0.250  0.250-   1 2.37   3 2.37   7 2.37   5 2.37
   3  0.500  0.500  0.000-   2 2.37   6 2.37   8 2.37   4 2.37
   4  0.750  0.750  0.250-   5 2.37   1 2.37   3 2.37   7 2.37
   5  0.500  1.000  0.500-   4 2.37   6 2.37   8 2.37   2 2.37
   6  0.750  0.250  0.750-   7 2.37   3 2.37   5 2.37   1 2.37
   7  0.000  0.500  0.501-   6 2.37   2 2.37   8 2.37   4 2.37
   8  0.250  0.751  0.751-   1 2.36   5 2.37   3 2.37   7 2.37
 
  LATTYP: Found a simple cubic cell.
 ALAT       =     5.4700000000
  
  Lattice vectors:
  
 A1 = (   5.4700000000,   0.0000000000,   0.0000000000)
 A2 = (   0.0000000000,   5.4700000000,   0.0000000000)
 A3 = (   0.0000000000,   0.0000000000,   5.4700000000)


Analysis of symmetry for initial positions (statically):
=====================================================================
 Subroutine PRICEL returns:
 Original cell was already a primitive cell.
 

 Routine SETGRP: Setting up the symmetry group for a 
 simple cubic supercell.


 Subroutine GETGRP returns: Found  1 space group operations
 (whereof  1 operations were pure point group operations)
 out of a pool of 48 trial point group operations.


The static configuration has the point symmetry C_1 .


Analysis of symmetry for dynamics (positions and initial velocities):
=====================================================================
 Subroutine PRICEL returns:
 Original cell was already a primitive cell.
 

 Routine SETGRP: Setting up the symmetry group for a 
 simple cubic supercell.


 Subroutine GETGRP returns: Found  1 space group operations
 (whereof  1 operations were pure point group operations)
 out of a pool of 48 trial point group operations.


The dynamic configuration has the point symmetry C_1 .


 irot  :   1
 --------------------------------------------------------------------
 isymop:   1   0   0
           0   1   0
           0   0   1

 gtrans:     0.0000000     0.0000000     0.0000000

 ptrans:     0.0000000     0.0000000     0.0000000
 rotmap:
 (   1->   1)  (   2->   2)  (   3->   3)  (   4->   4)  (   5->   5) 
 (   6->   6)  (   7->   7)  (   8->   8) 
 
 
 KPOINTS: Automatic mesh                          

Automatic generation of k-mesh.
Space group operators:
 irot       det(A)        alpha          n_x          n_y          n_z        tau_x        tau_y        tau_z
    1     1.000000     0.000001     1.000000     0.000000     0.000000     0.000000     0.000000     0.000000
 
 Subroutine IBZKPT returns following result:
 ===========================================
 
 Found      1 irreducible k-points:
 
 Following reciprocal coordinates:
            Coordinates               Weight
  0.000000  0.000000  0.000000      1.000000
 
 Following cartesian coordinates:
            Coordinates               Weight
  0.000000  0.000000  0.000000      1.000000
 
 
 Subroutine IBZKPT_HF returns following result:
 ==============================================
 
 Found      1 k-points in 1st BZ
 the following      1 k-points will be used (e.g. in the exchange kernel)
 Following reciprocal coordinates:   # in IRBZ
  0.000000  0.000000  0.000000       1 t-inv F


--------------------------------------------------------------------------------------------------------




 Dimension of arrays:
   k-points           NKPTS =      1   k-points in BZ     NKDIM =      1   number of bands    NBANDS=     48
   number of dos      NEDOS =    301   number of ions     NIONS =      8
   non local maximal  LDIM  =      4   non local SUM 2l+1 LMDIM =      8
   total plane-waves  NPLWV =  21952
   max r-space proj   IRMAX =      1   max aug-charges    IRDMAX=  36071
   dimension x,y,z NGX =    28 NGY =   28 NGZ =   28
   dimension x,y,z NGXF=    56 NGYF=   56 NGZF=   56
   support grid    NGXF=   112 NGYF=  112 NGZF=  112
   ions per type =               8
 NGX,Y,Z   is equivalent  to a cutoff of   8.51,  8.51,  8.51 a.u.
 NGXF,Y,Z  is equivalent  to a cutoff of  17.02, 17.02, 17.02 a.u.


 I would recommend the setting:
   dimension x,y,z NGX =    19 NGY =   19 NGZ =   19
 SYSTEM =  NAPTHA04                                
 POSCAR =  OUTCAR.0016.+1.out 1.0e-02              

 Startparameter for this run:
   NWRITE =      3    write-flag & timer
   PREC   = normal    normal or accurate (medium, high low for compatibility)
   ISTART =      0    job   : 0-new  1-cont  2-samecut
   ICHARG =      2    charge: 1-file 2-atom 10-const
   ISPIN  =      1    spin polarized calculation?
   LNONCOLLINEAR =      F non collinear calculations
   LSORBIT =      F    spin-orbit coupling
   INIWAV =      1    electr: 0-lowe 1-rand  2-diag
   LASPH  =      F    aspherical Exc in radial PAW
   METAGGA=      F    non-selfconsistent MetaGGA calc.

 Electronic Relaxation 1
   ENCUT  =  200.0 eV  14.70 Ry    3.83 a.u.   6.31  6.31  6.31*2*pi/ulx,y,z
   ENINI  =  200.0     initial cutoff
   ENAUG  =  322.1 eV  augmentation charge cutoff
   NELM   =     60;   NELMIN=  2; NELMDL= -5     # of ELM steps 
   EDIFF  = 0.1E-07   stopping-criterion for ELM
   LREAL  =      F    real-space projection
   NLSPLINE    = F    spline interpolate recip. space projectors
   LCOMPAT=      F    compatible to vasp.4.4
   GGA_COMPAT  = T    GGA compatible to vasp.4.4-vasp.4.6
   LMAXPAW     = -100 max onsite density
   LMAXMIX     =    2 max onsite mixed and CHGCAR
   VOSKOWN=      0    Vosko Wilk Nusair interpolation
   ROPT   =    0.00000
 Ionic relaxation
   EDIFFG = 0.1E-06   stopping-criterion for IOM
   NSW    =      0    number of steps for IOM
   NBLOCK =      1;   KBLOCK =      1    inner block; outer block 
   IBRION =     -1    ionic relax: 0-MD 1-quasi-New 2-CG
   NFREE  =      0    steps in history (QN), initial steepest desc. (CG)
   ISIF   =      2    stress and relaxation
   IWAVPR =     10    prediction:  0-non 1-charg 2-wave 3-comb
   ISYM   =      2    0-nonsym 1-usesym 2-fastsym
   LCORR  =      T    Harris-Foulkes like correction to forces

   POTIM  = 0.5000    time-step for ionic-motion
   TEIN   =    0.0    initial temperature
   TEBEG  =    0.0;   TEEND  =   0.0 temperature during run
   SMASS  =  -3.00    Nose mass-parameter (am)
   estimated Nose-frequenzy (Omega)   =  0.10E-29 period in steps =****** mass=  -0.684E-27a.u.
   SCALEE = 1.0000    scale energy and forces
   NPACO  =    256;   APACO  = 16.0  distance and # of slots for P.C.
   PSTRESS=    0.0 pullay stress

  Mass of Ions in am
   POMASS =  28.09
  Ionic Valenz
   ZVAL   =   4.00
  Atomic Wigner-Seitz radii
   RWIGS  =  -1.00
  virtual crystal weights 
   VCA    =   1.00
   NELECT =      32.0000    total number of electrons
   NUPDOWN=      -1.0000    fix difference up-down

 DOS related values:
   EMIN   =  10.00;   EMAX   =-10.00  energy-range for DOS
   EFERMI =   0.00
   ISMEAR =     0;   SIGMA  =   0.02  broadening in eV -4-tet -1-fermi 0-gaus

 Electronic relaxation 2 (details)
   IALGO  =     68    algorithm
   LDIAG  =      T    sub-space diagonalisation (order eigenvalues)
   LSUBROT=      T    optimize rotation matrix (better conditioning)
   TURBO    =      0    0=normal 1=particle mesh
   IRESTART =      0    0=no restart 2=restart with 2 vectors
   NREBOOT  =      0    no. of reboots
   NMIN     =      0    reboot dimension
   EREF     =   0.00    reference energy to select bands
   IMIX   =      4    mixing-type and parameters
     AMIX     =   0.40;   BMIX     =  1.00
     AMIX_MAG =   1.60;   BMIX_MAG =  1.00
     AMIN     =   0.10
     WC   =   100.;   INIMIX=   1;  MIXPRE=   1;  MAXMIX= -45

 Intra band minimization:
   WEIMIN = 0.0000     energy-eigenvalue tresh-hold
   EBREAK =  0.52E-10  absolut break condition
   DEPER  =   0.30     relativ break condition  

   TIME   =   0.40     timestep for ELM

  volume/ion in A,a.u.               =      20.46       138.06
  Fermi-wavevector in a.u.,A,eV,Ry     =   0.950176  1.795573 12.283814  0.902835
  Thomas-Fermi vector in A             =   2.078528
 
 Write flags
   LWAVE  =      F    write WAVECAR
   LCHARG =      F    write CHGCAR
   LVTOT  =      F    write LOCPOT, total local potential
   LVHAR  =      F    write LOCPOT, Hartree potential only
   LELF   =      F    write electronic localiz. function (ELF)
   LORBIT =      0    0 simple, 1 ext, 2 COOP (PROOUT)


 Dipole corrections
   LMONO  =      F    monopole corrections only (constant potential shift)
   LDIPOL =      F    correct potential (dipole corrections)
   IDIPOL =      0    1-x, 2-y, 3-z, 4-all directions 
   EPSILON=  1.0000000 bulk dielectric constant

 Exchange correlation treatment:
   GGA     =    --    GGA type
   LEXCH   =     7    internal setting for exchange type
   VOSKOWN=      0    Vosko Wilk Nusair interpolation
   LHFCALC =     F    Hartree Fock is set to
   LHFONE  =     F    Hartree Fock one center treatment
   AEXX    =    0.0000 exact exchange contribution

 Linear response parameters
   LEPSILON=     T    determine dielectric tensor
   LRPA    =     F    only Hartree local field effects (RPA)
   LNABLA  =     F    use nabla operator in PAW spheres
   LVEL    =     F    velocity operator in full k-point grid
   LINTERFAST=   F  fast interpolation
   KINTER  =     0    interpolate to denser k-point grid
   CSHIFT  =0.1000    complex shift for real part using Kramers Kronig
   OMEGAMAX=  -1.0    maximum frequency
   DEG_THRESHOLD= 0.2000000E-02 threshold for treating states as degnerate
   RTIME   =    0.100 relaxation time in fs

 Orbital magnetization related:
   ORBITALMAG=     F  switch on orbital magnetization
   LCHIMAG   =     F  perturbation theory with respect to B field
   DQ        =  0.001000  dq finite difference perturbation B field



--------------------------------------------------------------------------------------------------------


 Static calculation
 charge density and potential will be updated during run
 non-spin polarized calculation
 RMM-DIIS sequential band-by-band and
  variant of blocked Davidson during initial phase
 perform sub-space diagonalisation
    before iterative eigenvector-optimisation
 modified Broyden-mixing scheme, WC =      100.0
 initial mixing is a Kerker type mixing with AMIX =  0.4000 and BMIX =      1.0000
 Hartree-type preconditioning will be used
 using additional bands           32
 reciprocal scheme for non local part
 use partial core corrections
 calculate Harris-corrections to forces 
   (improved forces if not selfconsistent)
 use gradient corrections 
 use of overlap-Matrix (Vanderbilt PP)
 Gauss-broadening in eV      SIGMA  =   0.02


--------------------------------------------------------------------------------------------------------


  energy-cutoff  :      200.00
  volume of cell :      163.67
      direct lattice vectors                 reciprocal lattice vectors
     5.470000000  0.000000000  0.000000000     0.182815356  0.000000000  0.000000000
     0.000000000  5.470000000  0.000000000     0.000000000  0.182815356  0.000000000
     0.000000000  0.000000000  5.470000000     0.000000000  0.000000000  0.182815356

  length of vectors
     5.470000000  5.470000000  5.470000000     0.182815356  0.182815356  0.182815356


 
 k-points in units of 2pi/SCALE and weight: Automatic mesh                          
   0.00000000  0.00000000  0.00000000       1.000
 
 k-points in reciprocal lattice and weights: Automatic mesh                          
   0.00000000  0.00000000  0.00000000       1.000
 
 position of ions in fractional coordinates (direct lattice) 
   0.00043213  0.99933701  0.99971689
   0.24933701  0.24971689  0.24964954
   0.49971689  0.49964954  0.00016903
   0.74964954  0.75016903  0.24985002
   0.50016903  0.99985002  0.50014232
   0.74985002  0.25014232  0.75001441
   0.00014232  0.50001441  0.50064744
   0.25001441  0.75064744  0.75078385
 
 position of ions in cartesian coordinates  (Angst):
   0.00236376  5.46637343  5.46845139
   1.36387343  1.36595139  1.36558296
   2.73345139  2.73308296  0.00092460
   4.10058296  4.10342460  1.36667962
   2.73592460  5.46917962  2.73577852
   4.10167962  1.36827852  4.10257883
   0.00077852  2.73507883  2.73854149
   1.36757883  4.10604149  4.10678766
 


--------------------------------------------------------------------------------------------------------


 k-point  1 :   0.0000 0.0000 0.0000  plane waves:    1021

 maximum and minimum number of plane-waves per node :      1021     1021

 maximum number of plane-waves:      1021
 maximum index in each direction: 
   IXMAX=    6   IYMAX=    6   IZMAX=    6
   IXMIN=   -6   IYMIN=   -6   IZMIN=   -6

 NGX is ok and might be reduce to  26
 NGY is ok and might be reduce to  26
 NGZ is ok and might be reduce to  26

 serial   3D FFT for wavefunctions
 parallel 3D FFT for charge:
    minimum data exchange during FFTs selected (reduces bandwidth)


 total amount of memory used by VASP on root node    32224. kBytes
========================================================================

   base      :      30000. kBytes
   nonl-proj :        202. kBytes
   fftplans  :        782. kBytes
   grid      :       1198. kBytes
   one-center:         24. kBytes
   wavefun   :         18. kBytes
 
 Broyden mixing: mesh for mixing (old mesh)
   NGX = 13   NGY = 13   NGZ = 13
  (NGX  = 56   NGY  = 56   NGZ  = 56)
  gives a total of   2197 points

 initial charge density was supplied:
 charge density of overlapping atoms calculated
 number of electron      32.0000000 magnetization 
 keeping initial charge density in first step


--------------------------------------------------------------------------------------------------------


 Maximum index for augmentation-charges         1782 (set IRDMAX)


--------------------------------------------------------------------------------------------------------


 First call to EWALD:  gamma=   0.324
 Maximum number of real-space cells 3x 3x 3
 Maximum number of reciprocal cells 3x 3x 3

 FEWALD executed in parallel
    FEWALD:  cpu time    0.00: real time    0.00


----------------------------------------- Iteration    1(   1)  ---------------------------------------


    POTLOK:  cpu time    0.03: real time    0.03
    SETDIJ:  cpu time    0.02: real time    0.02
     EDDAV:  cpu time    0.40: real time    0.41
       DOS:  cpu time    0.00: real time    0.00
    --------------------------------------------
      LOOP:  cpu time    0.46: real time    0.47

 eigenvalue-minimisations  :    96
 total energy-change (2. order) :-0.1012871E+02  (-0.7955998E+03)
 number of electron      32.0000000 magnetization 
 augmentation part       32.0000000 magnetization 

 Free energy of the ion-electron system (eV)
  ---------------------------------------------------
  alpha Z        PSCENC =        12.68944982
  Ewald energy   TEWEN  =      -907.56645042
  -1/2 Hartree   DENC   =       -45.63649000
  -exchange  EXHF       =         0.00000000
  -V(xc)+E(xc)   XCENC  =       -76.79671320
  PAW double counting   =       265.93453375     -123.69690146
  entropy T*S    EENTRO =        -0.00017064
  eigenvalues    EBANDS =        38.57005158
  atomic energy  EATOM  =       826.37398168
  ---------------------------------------------------
  free energy    TOTEN  =       -10.12870890 eV

  energy without entropy =      -10.12853825  energy(sigma->0) =      -10.12862357


--------------------------------------------------------------------------------------------------------




 average (electrostatic) potential at core
  the test charge radii are     0.9892
  (the norm of the test charge is              1.0000)
       1 -84.3568       2 -84.3489       3 -84.3511       4 -84.3478       5 -84.3494
       6 -84.3500       7 -84.3453       8 -84.3559
 
 
 
 E-fermi :   6.6072     XC(G=0):  -9.5533     alpha+bet :-11.7379


 k-point   1 :       0.0000    0.0000    0.0000
  band No.  band energies     occupation 
      1      -6.5898      2.00000
      2      -2.4206      2.00000
      3      -2.2517      2.00000
      4      -2.1117      2.00000
      5      -2.0273      2.00000
      6      -1.8776      2.00000
      7      -1.6789      2.00000
      8       2.7415      2.00000
      9       2.8493      2.00000
     10       2.9948      2.00000
     11       3.1594      2.00000
     12       3.3439      2.00000
     13       4.0801      2.00000
     14       6.1459      2.00000
     15       6.3646      2.00000
     16       6.5630      1.99823
     17       6.6514      0.00177
     18       6.8134      0.00000
     19       6.9047      0.00000
     20       7.1715      0.00000
     21       7.3753      0.00000
     22       8.0431      0.00000
     23       8.9784      0.00000
     24       9.3778      0.00000
     25      10.4468      0.00000
     26      11.4506      0.00000
     27      13.5068      0.00000
     28      14.7736      0.00000
     29      16.5609      0.00000
     30      16.8900      0.00000
     31      17.3658      0.00000
     32      17.5843      0.00000
     33      17.9243      0.00000
     34      18.1292      0.00000
     35      18.4972      0.00000
     36      18.8688      0.00000
     37      19.3833      0.00000
     38      19.5050      0.00000
     39      19.8550      0.00000
     40      20.2544      0.00000
     41      21.0987      0.00000
     42      21.6896      0.00000
     43      22.1740      0.00000
     44      22.7716      0.00000
     45      23.9100      0.00000
     46      24.3908      0.00000
     47      24.8109      0.00000
     48      25.8347      0.00000


--------------------------------------------------------------------------------------------------------


 soft charge-density along one line, spin component           1
         0         1         2         3         4         5         6         7         8         9
 total charge-density along one line
 
 pseudopotential strength for first ion, spin component:           1
 18.663   0.000   0.000   0.000   0.000   0.000   0.000   0.000
  0.000   0.006   0.000   0.000   0.000   0.000   0.000   0.000
  0.000   0.000   4.216   0.000   0.000  -0.004   0.000   0.000
  0.000   0.000   0.000   4.216   0.000   0.000  -0.004   0.000
  0.000   0.000   0.000   0.000   4.216   0.000   0.000  -0.004
  0.000   0.000  -0.004   0.000   0.000   0.005   0.000   0.000
  0.000   0.000   0.000  -0.004   0.000   0.000   0.005   0.000
  0.000   0.000   0.000   0.000  -0.004   0.000   0.000   0.005
 total augmentation occupancy for first ion, spin component:           1
  2.000   0.000   0.000   0.000   0.000   0.000   0.000   0.000
  0.000   0.000   0.000   0.000   0.000   0.000   0.000   0.000
  0.000   0.000   0.667   0.000   0.000   0.000   0.000   0.000
  0.000   0.000   0.000   0.667   0.000   0.000   0.000   0.000
  0.000   0.000   0.000   0.000   0.667   0.000   0.000   0.000
  0.000   0.000   0.000   0.000   0.000   0.000   0.000   0.000
  0.000   0.000   0.000   0.000   0.000   0.000   0.000   0.000
  0.000   0.000   0.000   0.000   0.000   0.000   0.000   0.000


----------------------------------------- Iteration    1(   2)  ---------------------------------------


     EDDAV:  cpu time    0.98: real time    0.98
       DOS:  cpu time    0.00: real time    0.00
    --------------------------------------------
      LOOP:  cpu time    0.98: real time    0.99

 eigenvalue-minimisations  :   144
 total energy-change (2. order) :-0.2432156E+02  (-0.2431988E+02)
 number of electron      32.0000000 magnetization 
 augmentation part       32.0000000 magnetization 

 Free energy of the ion-electron system (eV)
  ---------------------------------------------------
  alpha Z        PSCENC =        12.68944982
  Ewald energy   TEWEN  =      -907.56645042
  -1/2 Hartree   DENC   =       -45.63649000
  -exchange  EXHF       =         0.00000000
  -V(xc)+E(xc)   XCENC  =       -76.79671320
  PAW double counting   =       265.93453375     -123.69690146
  entropy T*S    EENTRO =         0.00000000
  eigenvalues    EBANDS =        14.24831740
  atomic energy  EATOM  =       826.37398168
  ---------------------------------------------------
  free energy    TOTEN  =       -34.45027243 eV

  energy without entropy =      -34.45027243  energy(sigma->0) =      -34.45027243


--------------------------------------------------------------------------------------------------------




 average (electrostatic) potential at core
  the test charge radii are     0.9892
  (the norm of the test charge is              1.0000)
       1 -84.3568       2 -84.3489       3 -84.3511       4 -84.3478       5 -84.3494
       6 -84.3500       7 -84.3453       8 -84.3559
 
 
 
 E-fermi :   5.2466     XC(G=0):  -9.5533     alpha+bet :-11.7379


 k-point   1 :       0.0000    0.0000    0.0000
  band No.  band energies     occupation 
      1      -6.6372      2.00000
      2      -2.6517      2.00000
      3      -2.6335      2.00000
      4      -2.6289      2.00000
      5      -2.6277      2.00000
      6      -2.6179      2.00000
      7      -2.6154      2.00000
      8       2.3698      2.00000
      9       2.3798      2.00000
     10       2.3810      2.00000
     11       2.3836      2.00000
     12       2.3864      2.00000
     13       2.3955      2.00000
     14       5.0630      2.00000
     15       5.0828      2.00000
     16       5.0945      2.00000
     17       6.1412      0.00000
     18       6.1517      0.00000
     19       6.1548      0.00000
     20       6.1562      0.00000
     21       6.1666      0.00000
     22       6.1691      0.00000
     23       7.8458      0.00000
     24       7.8590      0.00000
     25       7.8667      0.00000
     26       8.1266      0.00000
     27      13.2005      0.00000
     28      13.2613      0.00000
     29      13.2699      0.00000
     30      15.1076      0.00000
     31      15.1300      0.00000
     32      15.1686      0.00000
     33      15.2480      0.00000
     34      15.3123      0.00000
     35      15.6368      0.00000
     36      16.3649      0.00000
     37      16.4275      0.00000
     38      16.4547      0.00000
     39      16.5356      0.00000
     40      16.7217      0.00000
     41      16.7494      0.00000
     42      16.7668      0.00000
     43      16.8701      0.00000
     44      17.2400      0.00000
     45      17.9114      0.00000
     46      17.9609      0.00000
     47      17.9918      0.00000
     48      18.0115      0.00000


--------------------------------------------------------------------------------------------------------


 soft charge-density along one line, spin component           1
         0         1         2         3         4         5         6         7         8         9
 total charge-density along one line
 
 pseudopotential strength for first ion, spin component:           1
 18.663   0.000   0.000   0.000   0.000   0.000   0.000   0.000
  0.000   0.006   0.000   0.000   0.000   0.000   0.000   0.000
  0.000   0.000   4.216   0.000   0.000  -0.004   0.000   0.000
  0.000   0.000   0.000   4.216   0.000   0.000  -0.004   0.000
  0.000   0.000   0.000   0.000   4.216   0.000   0.000  -0.004
  0.000   0.000  -0.004   0.000   0.000   0.005   0.000   0.000
  0.000   0.000   0.000  -0.004   0.000   0.000   0.005   0.000
  0.000   0.000   0.000   0.000  -0.004   0.000   0.000   0.005
 total augmentation occupancy for first ion, spin component:           1
  2.000   0.000   0.000   0.000   0.000   0.000   0.000   0.000
  0.000   0.000   0.000   0.000   0.000   0.000   0.000   0.000
  0.000   0.000   0.667   0.000   0.000   0.000   0.000   0.000
  0.000   0.000   0.000   0.667   0.000   0.000   0.000   0.000
  0.000   0.000   0.000   0.000   0.667   0.000   0.000   0.000
  0.000   0.000   0.000   0.000   0.000   0.000   0.000   0.000
  0.000   0.000   0.000   0.000   0.000   0.000   0.000   0.000
  0.000   0.000   0.000   0.000   0.000   0.000   0.000   0.000


----------------------------------------- Iteration    1(   3)  ---------------------------------------


     EDDAV:  cpu time    0.39: real time    0.39
       DOS:  cpu time    0.00: real time    0.00
    --------------------------------------------
      LOOP:  cpu time    0.40: real time    0.40

 eigenvalue-minimisations  :    96
 total energy-change (2. order) :-0.1671201E+00  (-0.1671201E+00)
 number of electron      32.0000000 magnetization 
 augmentation part       32.0000000 magnetization 

 Free energy of the ion-electron system (eV)
  ---------------------------------------------------
  alpha Z        PSCENC =        12.68944982
  Ewald energy   TEWEN  =      -907.56645042
  -1/2 Hartree   DENC   =       -45.63649000
  -exchange  EXHF       =         0.00000000
  -V(xc)+E(xc)   XCENC  =       -76.79671320
  PAW double counting   =       265.93453375     -123.69690146
  entropy T*S    EENTRO =         0.00000000
  eigenvalues    EBANDS =        14.08119734
  atomic energy  EATOM  =       826.37398168
  ---------------------------------------------------
  free energy    TOTEN  =       -34.61739249 eV

  energy without entropy =      -34.61739249  energy(sigma->0) =      -34.61739249


--------------------------------------------------------------------------------------------------------




 average (electrostatic) potential at core
  the test charge radii are     0.9892
  (the norm of the test charge is              1.0000)
       1 -84.3568       2 -84.3489       3 -84.3511       4 -84.3478       5 -84.3494
       6 -84.3500       7 -84.3453       8 -84.3559
 
 
 
 E-fermi :   5.2232     XC(G=0):  -9.5533     alpha+bet :-11.7379


 k-point   1 :       0.0000    0.0000    0.0000
  band No.  band energies     occupation 
      1      -6.6372      2.00000
      2      -2.6539      2.00000
      3      -2.6349      2.00000
      4      -2.6317      2.00000
      5      -2.6302      2.00000
      6      -2.6202      2.00000
      7      -2.6173      2.00000
      8       2.3668      2.00000
      9       2.3749      2.00000
     10       2.3774      2.00000
     11       2.3801      2.00000
     12       2.3822      2.00000
     13       2.3847      2.00000
     14       5.0507      2.00000
     15       5.0640      2.00000
     16       5.0854      2.00000
     17       6.1387      0.00000
     18       6.1474      0.00000
     19       6.1516      0.00000
     20       6.1534      0.00000
     21       6.1618      0.00000
     22       6.1662      0.00000
     23       7.8391      0.00000
     24       7.8510      0.00000
     25       7.8584      0.00000
     26       8.1178      0.00000
     27      13.1845      0.00000
     28      13.1866      0.00000
     29      13.2693      0.00000
     30      15.0831      0.00000
     31      15.0909      0.00000
     32      15.0930      0.00000
     33      15.1094      0.00000
     34      15.1298      0.00000
     35      15.1794      0.00000
     36      16.3017      0.00000
     37      16.3297      0.00000
     38      16.3492      0.00000
     39      16.3678      0.00000
     40      16.4323      0.00000
     41      16.4935      0.00000
     42      16.7055      0.00000
     43      16.7176      0.00000
     44      16.8245      0.00000
     45      17.8820      0.00000
     46      17.8992      0.00000
     47      17.9133      0.00000
     48      17.9397      0.00000


--------------------------------------------------------------------------------------------------------


 soft charge-density along one line, spin component           1
         0         1         2         3         4         5         6         7         8         9
 total charge-density along one line
 
 pseudopotential strength for first ion, spin component:           1
 18.663   0.000   0.000   0.000   0.000   0.000   0.000   0.000
  0.000   0.006   0.000   0.000   0.000   0.000   0.000   0.000
  0.000   0.000   4.216   0.000   0.000  -0.004   0.000   0.000
  0.000   0.000   0.000   4.216   0.000   0.000  -0.004   0.000
  0.000   0.000   0.000   0.000   4.216   0.000   0.000  -0.004
  0.000   0.000  -0.004   0.000   0.000   0.005   0.000   0.000
  0.000   0.000   0.000  -0.004   0.000   0.000   0.005   0.000
  0.000   0.000   0.000   0.000  -0.004   0.000   0.000   0.005
 total augmentation occupancy for first ion, spin component:           1
  2.000   0.000   0.000   0.000   0.000   0.000   0.000   0.000
  0.000   0.000   0.000   0.000   0.000   0.000   0.000   0.000
  0.000   0.000   0.667   0.000   0.000   0.000   0.000   0.000
  0.000   0.000   0.000   0.667   0.000   0.000   0.000   0.000
  0.000   0.000   0.000   0.000   0.667   0.000   0.000   0.000
  0.000   0.000   0.000   0.000   0.000   0.000   0.000   0.000
  0.000   0.000   0.000   0.000   0.000   0.000   0.000   0.000
  0.000   0.000   0.000   0.000   0.000   0.000   0.000   0.000


----------------------------------------- Iteration    1(   4)  ---------------------------------------


     EDDAV:  cpu time    2.01: real time    2.01
       DOS:  cpu time    0.00: real time    0.00
    --------------------------------------------
      LOOP:  cpu time    2.01: real time    2.02

 eigenvalue-minimisations  :   192
 total energy-change (2. order) :-0.3545378E-03  (-0.3545378E-03)
 number of electron      32.0000000 magnetization 
 augmentation part       32.0000000 magnetization 

 Free energy of the ion-electron system (eV)
  ---------------------------------------------------
  alpha Z        PSCENC =        12.68944982
  Ewald energy   TEWEN  =      -907.56645042
  -1/2 Hartree   DENC   =       -45.63649000
  -exchange  EXHF       =         0.00000000
  -V(xc)+E(xc)   XCENC  =       -76.79671320
  PAW double counting   =       265.93453375     -123.69690146
  entropy T*S    EENTRO =         0.00000000
  eigenvalues    EBANDS =        14.08084281
  atomic energy  EATOM  =       826.37398168
  ---------------------------------------------------
  free energy    TOTEN  =       -34.61774703 eV

  energy without entropy =      -34.61774703  energy(sigma->0) =      -34.61774703


--------------------------------------------------------------------------------------------------------




 average (electrostatic) potential at core
  the test charge radii are     0.9892
  (the norm of the test charge is              1.0000)
       1 -84.3568       2 -84.3489       3 -84.3511       4 -84.3478       5 -84.3494
       6 -84.3500       7 -84.3453       8 -84.3559
 
 
 
 E-fermi :   5.2029     XC(G=0):  -9.5533     alpha+bet :-11.7379


 k-point   1 :       0.0000    0.0000    0.0000
  band No.  band energies     occupation 
      1      -6.6372      2.00000
      2      -2.6539      2.00000
      3      -2.6349      2.00000
      4      -2.6318      2.00000
      5      -2.6302      2.00000
      6      -2.6202      2.00000
      7      -2.6173      2.00000
      8       2.3668      2.00000
      9       2.3748      2.00000
     10       2.3774      2.00000
     11       2.3801      2.00000
     12       2.3822      2.00000
     13       2.3847      2.00000
     14       5.0506      2.00000
     15       5.0640      2.00000
     16       5.0854      2.00000
     17       6.1387      0.00000
     18       6.1474      0.00000
     19       6.1516      0.00000
     20       6.1534      0.00000
     21       6.1618      0.00000
     22       6.1662      0.00000
     23       7.8391      0.00000
     24       7.8510      0.00000
     25       7.8584      0.00000
     26       8.1178      0.00000
     27      13.1837      0.00000
     28      13.1838      0.00000
     29      13.2693      0.00000
     30      15.0767      0.00000
     31      15.0804      0.00000
     32      15.0817      0.00000
     33      15.0849      0.00000
     34      15.0877      0.00000
     35      15.0972      0.00000
     36      16.2895      0.00000
     37      16.3043      0.00000
     38      16.3095      0.00000
     39      16.3146      0.00000
     40      16.3213      0.00000
     41      16.3229      0.00000
     42      16.6928      0.00000
     43      16.7059      0.00000
     44      16.7146      0.00000
     45      17.8664      0.00000
     46      17.8744      0.00000
     47      17.8867      0.00000
     48      17.8977      0.00000


--------------------------------------------------------------------------------------------------------


 soft charge-density along one line, spin component           1
         0         1         2         3         4         5         6         7         8         9
 total charge-density along one line
 
 pseudopotential strength for first ion, spin component:           1
 18.663   0.000   0.000   0.000   0.000   0.000   0.000   0.000
  0.000   0.006   0.000   0.000   0.000   0.000   0.000   0.000
  0.000   0.000   4.216   0.000   0.000  -0.004   0.000   0.000
  0.000   0.000   0.000   4.216   0.000   0.000  -0.004   0.000
  0.000   0.000   0.000   0.000   4.216   0.000   0.000  -0.004
  0.000   0.000  -0.004   0.000   0.000   0.005   0.000   0.000
  0.000   0.000   0.000  -0.004   0.000   0.000   0.005   0.000
  0.000   0.000   0.000   0.000  -0.004   0.000   0.000   0.005
 total augmentation occupancy for first ion, spin component:           1
  2.000   0.000   0.000   0.000   0.000   0.000   0.000   0.000
  0.000   0.000   0.000   0.000   0.000   0.000   0.000   0.000
  0.000   0.000   0.667   0.000   0.000   0.000   0.000   0.000
  0.000   0.000   0.000   0.667   0.000   0.000   0.000   0.000
  0.000   0.000   0.000   0.000   0.667   0.000   0.000   0.000
  0.000   0.000   0.000   0.000   0.000   0.000   0.000   0.000
  0.000   0.000   0.000   0.000   0.000   0.000   0.000   0.000
  0.000   0.000   0.000   0.000   0.000   0.000   0.000   0.000


----------------------------------------- Iteration    1(   5)  ---------------------------------------


     EDDAV:  cpu time    0.39: real time    0.39
       DOS:  cpu time    0.00: real time    0.00
    CHARGE:  cpu time    0.02: real time    0.02
    MIXING:  cpu time    0.00: real time    0.00
    --------------------------------------------
      LOOP:  cpu time    0.42: real time    0.42

 eigenvalue-minimisations  :    96
 total energy-change (2. order) :-0.3067498E-08  (-0.3067149E-08)
 number of electron      31.9999999 magnetization 
 augmentation part       -1.8053359 magnetization 

 Broyden mixing:
  rms(total) = 0.79306E+00    rms(broyden)= 0.79301E+00
  rms(prec ) = 0.15229E+01
  weight for this iteration     100.00

 Free energy of the ion-electron system (eV)
  ---------------------------------------------------
  alpha Z        PSCENC =        12.68944982
  Ewald energy   TEWEN  =      -907.56645042
  -1/2 Hartree   DENC   =       -45.63649000
  -exchange  EXHF       =         0.00000000
  -V(xc)+E(xc)   XCENC  =       -76.79671320
  PAW double counting   =       265.93453375     -123.69690146
  entropy T*S    EENTRO =         0.00000000
  eigenvalues    EBANDS =        14.08084280
  atomic energy  EATOM  =       826.37398168
  ---------------------------------------------------
  free energy    TOTEN  =       -34.61774703 eV

  energy without entropy =      -34.61774703  energy(sigma->0) =      -34.61774703


--------------------------------------------------------------------------------------------------------




 average (electrostatic) potential at core
  the test charge radii are     0.9892
  (the norm of the test charge is              1.0000)
       1 -84.3568       2 -84.3489       3 -84.3511       4 -84.3478       5 -84.3494
       6 -84.3500       7 -84.3453       8 -84.3559
 
 
 
 E-fermi :   5.1985     XC(G=0):  -9.5533     alpha+bet :-11.7379


 k-point   1 :       0.0000    0.0000    0.0000
  band No.  band energies     occupation 
      1      -6.6372      2.00000
      2      -2.6539      2.00000
      3      -2.6349      2.00000
      4      -2.6318      2.00000
      5      -2.6302      2.00000
      6      -2.6202      2.00000
      7      -2.6173      2.00000
      8       2.3668      2.00000
      9       2.3748      2.00000
     10       2.3774      2.00000
     11       2.3801      2.00000
     12       2.3822      2.00000
     13       2.3847      2.00000
     14       5.0506      2.00000
     15       5.0640      2.00000
     16       5.0854      2.00000
     17       6.1387      0.00000
     18       6.1474      0.00000
     19       6.1516      0.00000
     20       6.1534      0.00000
     21       6.1618      0.00000
     22       6.1662      0.00000
     23       7.8391      0.00000
     24       7.8510      0.00000
     25       7.8584      0.00000
     26       8.1178      0.00000
     27      13.1837      0.00000
     28      13.1838      0.00000
     29      13.2693      0.00000
     30      15.0767      0.00000
     31      15.0803      0.00000
     32      15.0817      0.00000
     33      15.0849      0.00000
     34      15.0876      0.00000
     35      15.0971      0.00000
     36      16.2894      0.00000
     37      16.3041      0.00000
     38      16.3091      0.00000
     39      16.3143      0.00000
     40      16.3206      0.00000
     41      16.3227      0.00000
     42      16.6927      0.00000
     43      16.7058      0.00000
     44      16.7143      0.00000
     45      17.8618      0.00000
     46      17.8682      0.00000
     47      17.8806      0.00000
     48      17.8885      0.00000


--------------------------------------------------------------------------------------------------------


 soft charge-density along one line, spin component           1
         0         1         2         3         4         5         6         7         8         9
 total charge-density along one line
 
 pseudopotential strength for first ion, spin component:           1
 18.663   0.000   0.000   0.000   0.000   0.000   0.000   0.000
  0.000   0.006   0.000   0.000   0.000   0.000   0.000   0.000
  0.000   0.000   4.216   0.000   0.000  -0.004   0.000   0.000
  0.000   0.000   0.000   4.216   0.000   0.000  -0.004   0.000
  0.000   0.000   0.000   0.000   4.216   0.000   0.000  -0.004
  0.000   0.000  -0.004   0.000   0.000   0.005   0.000   0.000
  0.000   0.000   0.000  -0.004   0.000   0.000   0.005   0.000
  0.000   0.000   0.000   0.000  -0.004   0.000   0.000   0.005
 total augmentation occupancy for first ion, spin component:           1
  1.380  -1.054  -0.002  -0.001   0.003   0.002   0.001  -0.003
 -1.054   0.923   0.001   0.000  -0.003  -0.002   0.000   0.004
 -0.002   0.001   1.165   0.002   0.000  -0.760  -0.004   0.001
 -0.001   0.000   0.002   1.165  -0.001  -0.003  -0.759   0.003
  0.003  -0.003   0.000  -0.001   1.167   0.001   0.003  -0.761
  0.002  -0.002  -0.760  -0.003   0.001   0.571   0.004  -0.001
  0.001   0.000  -0.004  -0.759   0.003   0.004   0.571  -0.003
 -0.003   0.004   0.001   0.003  -0.761  -0.001  -0.003   0.572


----------------------------------------- Iteration    1(   6)  ---------------------------------------


    POTLOK:  cpu time    0.02: real time    0.02
    SETDIJ:  cpu time    0.02: real time    0.02
    EDDIAG:  cpu time    0.03: real time    0.04
  RMM-DIIS:  cpu time    0.03: real time    0.03
    ORTHCH:  cpu time    0.01: real time    0.01
       DOS:  cpu time    0.00: real time    0.00
    CHARGE:  cpu time    0.02: real time    0.02
    MIXING:  cpu time    0.00: real time    0.00
    --------------------------------------------
      LOOP:  cpu time    0.13: real time    0.14

 eigenvalue-minimisations  :    96
 total energy-change (2. order) : 0.1001721E+01  (-0.3198357E-01)
 number of electron      31.9999999 magnetization 
 augmentation part       -1.7684064 magnetization 

 Broyden mixing:
  rms(total) = 0.47400E+00    rms(broyden)= 0.47399E+00
  rms(prec ) = 0.91066E+00
  weight for this iteration     100.00

 eigenvalues of (default mixing * dielectric matrix)
  average eigenvalue GAMMA=   2.4573
  2.4573

 Free energy of the ion-electron system (eV)
  ---------------------------------------------------
  alpha Z        PSCENC =        12.68944982
  Ewald energy   TEWEN  =      -907.56645042
  -1/2 Hartree   DENC   =       -54.68304818
  -exchange  EXHF       =         0.00000000
  -V(xc)+E(xc)   XCENC  =       -75.44940522
  PAW double counting   =       286.06079271     -144.35910459
  entropy T*S    EENTRO =         0.00000000
  eigenvalues    EBANDS =        23.31775854
  atomic energy  EATOM  =       826.37398168
  ---------------------------------------------------
  free energy    TOTEN  =       -33.61602567 eV

  energy without entropy =      -33.61602567  energy(sigma->0) =      -33.61602567


--------------------------------------------------------------------------------------------------------




 average (electrostatic) potential at core
  the test charge radii are     0.9892
  (the norm of the test charge is              1.0000)
       1 -83.8358       2 -83.8320       3 -83.8331       4 -83.8315       5 -83.8323
       6 -83.8325       7 -83.8302       8 -83.8353
 
 
 
 E-fermi :   5.5602     XC(G=0):  -9.4504     alpha+bet :-11.7379


 k-point   1 :       0.0000    0.0000    0.0000
  band No.  band energies     occupation 
      1      -6.3788      2.00000
      2      -2.3524      2.00000
      3      -2.3362      2.00000
      4      -2.3333      2.00000
      5      -2.3307      2.00000
      6      -2.3222      2.00000
      7      -2.3200      2.00000
      8       2.6290      2.00000
      9       2.6362      2.00000
     10       2.6384      2.00000
     11       2.6409      2.00000
     12       2.6426      2.00000
     13       2.6453      2.00000
     14       5.3843      2.00000
     15       5.3974      2.00000
     16       5.4184      2.00000
     17       6.2541      0.00000
     18       6.2622      0.00000
     19       6.2661      0.00000
     20       6.2685      0.00000
     21       6.2750      0.00000
     22       6.2797      0.00000
     23       8.0463      0.00000
     24       8.0584      0.00000
     25       8.0660      0.00000
     26       8.4862      0.00000
     27      13.3050      0.00000
     28      13.3569      0.00000
     29      13.3569      0.00000
     30      15.3737      0.00000
     31      15.3764      0.00000
     32      15.3782      0.00000
     33      15.3810      0.00000
     34      15.3834      0.00000
     35      15.3927      0.00000
     36      16.5269      0.00000
     37      16.5406      0.00000
     38      16.5451      0.00000
     39      16.5498      0.00000
     40      16.5556      0.00000
     41      16.5573      0.00000
     42      16.7372      0.00000
     43      16.7504      0.00000
     44      16.7591      0.00000
     45      18.1514      0.00000
     46      18.1571      0.00000
     47      18.1695      0.00000
     48      18.1744      0.00000


--------------------------------------------------------------------------------------------------------


 soft charge-density along one line, spin component           1
         0         1         2         3         4         5         6         7         8         9
 total charge-density along one line
 
 pseudopotential strength for first ion, spin component:           1
 18.635  -0.001   0.000   0.000   0.000   0.000   0.000   0.000
 -0.001   0.006   0.000   0.000   0.000   0.000   0.000   0.000
  0.000   0.000   4.221   0.000   0.000  -0.004   0.000   0.000
  0.000   0.000   0.000   4.221   0.000   0.000  -0.004   0.000
  0.000   0.000   0.000   0.000   4.221   0.000   0.000  -0.004
  0.000   0.000  -0.004   0.000   0.000   0.005   0.000   0.000
  0.000   0.000   0.000  -0.004   0.000   0.000   0.005   0.000
  0.000   0.000   0.000   0.000  -0.004   0.000   0.000   0.005
 total augmentation occupancy for first ion, spin component:           1
  1.351  -1.093  -0.001  -0.001   0.003   0.002   0.001  -0.004
 -1.093   1.002   0.001   0.000  -0.002  -0.002   0.000   0.004
 -0.001   0.001   1.147   0.002   0.000  -0.783  -0.004   0.001
 -0.001   0.000   0.002   1.146  -0.001  -0.004  -0.783   0.003
  0.003  -0.002   0.000  -0.001   1.148   0.001   0.003  -0.784
  0.002  -0.002  -0.783  -0.004   0.001   0.610   0.004  -0.001
  0.001   0.000  -0.004  -0.783   0.003   0.004   0.610  -0.003
 -0.004   0.004   0.001   0.003  -0.784  -0.001  -0.003   0.611


----------------------------------------- Iteration    1(   7)  ---------------------------------------


    POTLOK:  cpu time    0.03: real time    0.03
    SETDIJ:  cpu time    0.02: real time    0.02
    EDDIAG:  cpu time    0.02: real time    0.02
  RMM-DIIS:  cpu time    0.03: real time    0.03
    ORTHCH:  cpu time    0.01: real time    0.01
       DOS:  cpu time    0.00: real time    0.00
    CHARGE:  cpu time    0.02: real time    0.02
    MIXING:  cpu time    0.00: real time    0.00
    --------------------------------------------
      LOOP:  cpu time    0.13: real time    0.13

 eigenvalue-minimisations  :    96
 total energy-change (2. order) : 0.4246711E+00  (-0.7389006E-01)
 number of electron      31.9999999 magnetization 
 augmentation part       -1.7214509 magnetization 

 Broyden mixing:
  rms(total) = 0.46249E-01    rms(broyden)= 0.46239E-01
  rms(prec ) = 0.78453E-01
  weight for this iteration     100.00

 eigenvalues of (default mixing * dielectric matrix)
  average eigenvalue GAMMA=   2.5300
  2.5300  2.5300

 Free energy of the ion-electron system (eV)
  ---------------------------------------------------
  alpha Z        PSCENC =        12.68944982
  Ewald energy   TEWEN  =      -907.56645042
  -1/2 Hartree   DENC   =       -70.51413838
  -exchange  EXHF       =         0.00000000
  -V(xc)+E(xc)   XCENC  =       -73.00924969
  PAW double counting   =       313.72508067     -172.73710566
  entropy T*S    EENTRO =         0.00000000
  eigenvalues    EBANDS =        37.84707739
  atomic energy  EATOM  =       826.37398168
  ---------------------------------------------------
  free energy    TOTEN  =       -33.19135459 eV

  energy without entropy =      -33.19135459  energy(sigma->0) =      -33.19135459


--------------------------------------------------------------------------------------------------------




 average (electrostatic) potential at core
  the test charge radii are     0.9892
  (the norm of the test charge is              1.0000)
       1 -83.1475       2 -83.1446       3 -83.1455       4 -83.1448       5 -83.1452
       6 -83.1455       7 -83.1439       8 -83.1473
 
 
 
 E-fermi :   6.0958     XC(G=0):  -9.2018     alpha+bet :-11.7379


 k-point   1 :       0.0000    0.0000    0.0000
  band No.  band energies     occupation 
      1      -5.9621      2.00000
      2      -1.8839      2.00000
      3      -1.8701      2.00000
      4      -1.8670      2.00000
      5      -1.8639      2.00000
      6      -1.8566      2.00000
      7      -1.8546      2.00000
      8       3.0425      2.00000
      9       3.0493      2.00000
     10       3.0509      2.00000
     11       3.0531      2.00000
     12       3.0545      2.00000
     13       3.0575      2.00000
     14       5.9094      2.00000
     15       5.9221      2.00000
     16       5.9425      2.00000
     17       6.5136      0.00000
     18       6.5208      0.00000
     19       6.5246      0.00000
     20       6.5277      0.00000
     21       6.5320      0.00000
     22       6.5370      0.00000
     23       8.3712      0.00000
     24       8.3835      0.00000
     25       8.3913      0.00000
     26       9.0452      0.00000
     27      13.6013      0.00000
     28      13.6204      0.00000
     29      13.6204      0.00000
     30      15.8245      0.00000
     31      15.8264      0.00000
     32      15.8285      0.00000
     33      15.8308      0.00000
     34      15.8333      0.00000
     35      15.8418      0.00000
     36      16.8914      0.00000
     37      16.9052      0.00000
     38      16.9118      0.00000
     39      16.9503      0.00000
     40      16.9606      0.00000
     41      16.9644      0.00000
     42      16.9684      0.00000
     43      16.9738      0.00000
     44      16.9753      0.00000
     45      18.6495      0.00000
     46      18.6552      0.00000
     47      18.6686      0.00000
     48      18.6732      0.00000


--------------------------------------------------------------------------------------------------------


 soft charge-density along one line, spin component           1
         0         1         2         3         4         5         6         7         8         9
 total charge-density along one line
 
 pseudopotential strength for first ion, spin component:           1
 18.597  -0.001   0.000   0.000   0.000   0.000   0.000   0.000
 -0.001   0.006   0.000   0.000   0.000   0.000   0.000   0.000
  0.000   0.000   4.227   0.000   0.000  -0.005   0.000   0.000
  0.000   0.000   0.000   4.227   0.000   0.000  -0.005   0.000
  0.000   0.000   0.000   0.000   4.227   0.000   0.000  -0.005
  0.000   0.000  -0.005   0.000   0.000   0.005   0.000   0.000
  0.000   0.000   0.000  -0.005   0.000   0.000   0.005   0.000
  0.000   0.000   0.000   0.000  -0.005   0.000   0.000   0.005
 total augmentation occupancy for first ion, spin component:           1
  1.315  -1.114  -0.001  -0.001   0.003   0.002   0.001  -0.005
 -1.114   1.062   0.001   0.000  -0.002  -0.002   0.000   0.004
 -0.001   0.001   1.122   0.003   0.000  -0.806  -0.004   0.001
 -0.001   0.000   0.003   1.121  -0.001  -0.004  -0.806   0.002
  0.003  -0.002   0.000  -0.001   1.123   0.001   0.003  -0.807
  0.002  -0.002  -0.806  -0.004   0.001   0.653   0.004  -0.001
  0.001   0.000  -0.004  -0.806   0.003   0.004   0.653  -0.003
 -0.005   0.004   0.001   0.002  -0.807  -0.001  -0.003   0.655


----------------------------------------- Iteration    1(   8)  ---------------------------------------


    POTLOK:  cpu time    0.02: real time    0.02
    SETDIJ:  cpu time    0.02: real time    0.02
    EDDIAG:  cpu time    0.02: real time    0.02
  RMM-DIIS:  cpu time    0.03: real time    0.03
    ORTHCH:  cpu time    0.01: real time    0.01
       DOS:  cpu time    0.00: real time    0.00
    CHARGE:  cpu time    0.02: real time    0.02
    MIXING:  cpu time    0.00: real time    0.00
    --------------------------------------------
      LOOP:  cpu time    0.13: real time    0.13

 eigenvalue-minimisations  :    96
 total energy-change (2. order) :-0.3197847E-01  (-0.2160774E-02)
 number of electron      31.9999999 magnetization 
 augmentation part       -1.7275443 magnetization 

 Broyden mixing:
  rms(total) = 0.74947E-02    rms(broyden)= 0.74942E-02
  rms(prec ) = 0.17964E-01
  weight for this iteration     100.00

 eigenvalues of (default mixing * dielectric matrix)
  average eigenvalue GAMMA=   2.1212
  1.2743  2.8650  2.2244

 Free energy of the ion-electron system (eV)
  ---------------------------------------------------
  alpha Z        PSCENC =        12.68944982
  Ewald energy   TEWEN  =      -907.56645042
  -1/2 Hartree   DENC   =       -70.39920331
  -exchange  EXHF       =         0.00000000
  -V(xc)+E(xc)   XCENC  =       -72.96569128
  PAW double counting   =       307.36518096     -166.19246559
  entropy T*S    EENTRO =         0.00000000
  eigenvalues    EBANDS =        37.47186510
  atomic energy  EATOM  =       826.37398168
  ---------------------------------------------------
  free energy    TOTEN  =       -33.22333306 eV

  energy without entropy =      -33.22333306  energy(sigma->0) =      -33.22333306


--------------------------------------------------------------------------------------------------------




 average (electrostatic) potential at core
  the test charge radii are     0.9892
  (the norm of the test charge is              1.0000)
       1 -83.2531       2 -83.2469       3 -83.2487       4 -83.2464       5 -83.2476
       6 -83.2480       7 -83.2444       8 -83.2525
 
 
 
 E-fermi :   6.0349     XC(G=0):  -9.1504     alpha+bet :-11.7379


 k-point   1 :       0.0000    0.0000    0.0000
  band No.  band energies     occupation 
      1      -5.9632      2.00000
      2      -1.8968      2.00000
      3      -1.8814      2.00000
      4      -1.8784      2.00000
      5      -1.8757      2.00000
      6      -1.8676      2.00000
      7      -1.8655      2.00000
      8       3.0304      2.00000
      9       3.0378      2.00000
     10       3.0395      2.00000
     11       3.0416      2.00000
     12       3.0432      2.00000
     13       3.0463      2.00000
     14       5.8932      2.00000
     15       5.9060      2.00000
     16       5.9264      2.00000
     17       6.5641      0.00000
     18       6.5715      0.00000
     19       6.5755      0.00000
     20       6.5785      0.00000
     21       6.5833      0.00000
     22       6.5882      0.00000
     23       8.3606      0.00000
     24       8.3729      0.00000
     25       8.3806      0.00000
     26       9.0381      0.00000
     27      13.6064      0.00000
     28      13.6065      0.00000
     29      13.7783      0.00000
     30      15.8095      0.00000
     31      15.8120      0.00000
     32      15.8136      0.00000
     33      15.8161      0.00000
     34      15.8190      0.00000
     35      15.8272      0.00000
     36      16.9281      0.00000
     37      16.9418      0.00000
     38      16.9443      0.00000
     39      16.9610      0.00000
     40      16.9669      0.00000
     41      16.9710      0.00000
     42      16.9750      0.00000
     43      16.9804      0.00000
     44      16.9824      0.00000
     45      18.6850      0.00000
     46      18.6927      0.00000
     47      18.7057      0.00000
     48      18.7116      0.00000


--------------------------------------------------------------------------------------------------------


 soft charge-density along one line, spin component           1
         0         1         2         3         4         5         6         7         8         9
 total charge-density along one line
 
 pseudopotential strength for first ion, spin component:           1
 18.600  -0.001   0.000   0.000   0.000   0.000   0.000   0.000
 -0.001   0.006   0.000   0.000   0.000   0.000   0.000   0.000
  0.000   0.000   4.224   0.000   0.000  -0.005   0.000   0.000
  0.000   0.000   0.000   4.224   0.000   0.000  -0.005   0.000
  0.000   0.000   0.000   0.000   4.224   0.000   0.000  -0.005
  0.000   0.000  -0.005   0.000   0.000   0.005   0.000   0.000
  0.000   0.000   0.000  -0.005   0.000   0.000   0.005   0.000
  0.000   0.000   0.000   0.000  -0.005   0.000   0.000   0.005
 total augmentation occupancy for first ion, spin component:           1
  1.320  -1.094  -0.001  -0.001   0.003   0.002   0.001  -0.004
 -1.094   1.024   0.001   0.000  -0.002  -0.002   0.000   0.004
 -0.001   0.001   1.123   0.002   0.000  -0.802  -0.004   0.001
 -0.001   0.000   0.002   1.123  -0.001  -0.004  -0.802   0.003
  0.003  -0.002   0.000  -0.001   1.125   0.001   0.003  -0.803
  0.002  -0.002  -0.802  -0.004   0.001   0.648   0.004  -0.001
  0.001   0.000  -0.004  -0.802   0.003   0.004   0.648  -0.003
 -0.004   0.004   0.001   0.003  -0.803  -0.001  -0.003   0.649


----------------------------------------- Iteration    1(   9)  ---------------------------------------


    POTLOK:  cpu time    0.02: real time    0.02
    SETDIJ:  cpu time    0.02: real time    0.02
    EDDIAG:  cpu time    0.02: real time    0.02
  RMM-DIIS:  cpu time    0.03: real time    0.03
    ORTHCH:  cpu time    0.01: real time    0.01
       DOS:  cpu time    0.00: real time    0.00
    CHARGE:  cpu time    0.02: real time    0.02
    MIXING:  cpu time    0.00: real time    0.00
    --------------------------------------------
      LOOP:  cpu time    0.12: real time    0.12

 eigenvalue-minimisations  :   106
 total energy-change (2. order) :-0.1136445E-02  (-0.1266674E-03)
 number of electron      31.9999999 magnetization 
 augmentation part       -1.7274629 magnetization 

 Broyden mixing:
  rms(total) = 0.41754E-02    rms(broyden)= 0.41753E-02
  rms(prec ) = 0.68413E-02
  weight for this iteration     100.00

 eigenvalues of (default mixing * dielectric matrix)
  average eigenvalue GAMMA=   2.2899
  0.9865  3.2124  2.6709  2.2900

 Free energy of the ion-electron system (eV)
  ---------------------------------------------------
  alpha Z        PSCENC =        12.68944982
  Ewald energy   TEWEN  =      -907.56645042
  -1/2 Hartree   DENC   =       -70.79603499
  -exchange  EXHF       =         0.00000000
  -V(xc)+E(xc)   XCENC  =       -72.90642547
  PAW double counting   =       307.71575953     -166.55344019
  entropy T*S    EENTRO =         0.00000000
  eigenvalues    EBANDS =        37.81869054
  atomic energy  EATOM  =       826.37398168
  ---------------------------------------------------
  free energy    TOTEN  =       -33.22446950 eV

  energy without entropy =      -33.22446950  energy(sigma->0) =      -33.22446950


--------------------------------------------------------------------------------------------------------




 average (electrostatic) potential at core
  the test charge radii are     0.9892
  (the norm of the test charge is              1.0000)
       1 -83.2376       2 -83.2332       3 -83.2345       4 -83.2326       5 -83.2336
       6 -83.2338       7 -83.2311       8 -83.2371
 
 
 
 E-fermi :   6.0498     XC(G=0):  -9.1362     alpha+bet :-11.7379


 k-point   1 :       0.0000    0.0000    0.0000
  band No.  band energies     occupation 
      1      -5.9519      2.00000
      2      -1.8851      2.00000
      3      -1.8703      2.00000
      4      -1.8673      2.00000
      5      -1.8645      2.00000
      6      -1.8567      2.00000
      7      -1.8546      2.00000
      8       3.0405      2.00000
      9       3.0476      2.00000
     10       3.0493      2.00000
     11       3.0515      2.00000
     12       3.0530      2.00000
     13       3.0560      2.00000
     14       5.9053      2.00000
     15       5.9181      2.00000
     16       5.9385      2.00000
     17       6.5781      0.00000
     18       6.5856      0.00000
     19       6.5895      0.00000
     20       6.5925      0.00000
     21       6.5974      0.00000
     22       6.6024      0.00000
     23       8.3683      0.00000
     24       8.3805      0.00000
     25       8.3882      0.00000
     26       9.0526      0.00000
     27      13.6117      0.00000
     28      13.6117      0.00000
     29      13.8105      0.00000
     30      15.8201      0.00000
     31      15.8224      0.00000
     32      15.8242      0.00000
     33      15.8267      0.00000
     34      15.8293      0.00000
     35      15.8377      0.00000
     36      16.9381      0.00000
     37      16.9520      0.00000
     38      16.9549      0.00000
     39      16.9726      0.00000
     40      16.9790      0.00000
     41      16.9831      0.00000
     42      16.9871      0.00000
     43      16.9925      0.00000
     44      16.9944      0.00000
     45      18.7029      0.00000
     46      18.7108      0.00000
     47      18.7236      0.00000
     48      18.7303      0.00000


--------------------------------------------------------------------------------------------------------


 soft charge-density along one line, spin component           1
         0         1         2         3         4         5         6         7         8         9
 total charge-density along one line
 
 pseudopotential strength for first ion, spin component:           1
 18.599  -0.001   0.000   0.000   0.000   0.000   0.000   0.000
 -0.001   0.006   0.000   0.000   0.000   0.000   0.000   0.000
  0.000   0.000   4.224   0.000   0.000  -0.005   0.000   0.000
  0.000   0.000   0.000   4.224   0.000   0.000  -0.005   0.000
  0.000   0.000   0.000   0.000   4.224   0.000   0.000  -0.005
  0.000   0.000  -0.005   0.000   0.000   0.005   0.000   0.000
  0.000   0.000   0.000  -0.005   0.000   0.000   0.005   0.000
  0.000   0.000   0.000   0.000  -0.005   0.000   0.000   0.005
 total augmentation occupancy for first ion, spin component:           1
  1.320  -1.089  -0.001  -0.001   0.003   0.002   0.001  -0.004
 -1.089   1.016   0.001   0.000  -0.002  -0.002   0.000   0.004
 -0.001   0.001   1.123   0.002   0.000  -0.802  -0.004   0.001
 -0.001   0.000   0.002   1.122  -0.001  -0.004  -0.801   0.003
  0.003  -0.002   0.000  -0.001   1.124   0.001   0.003  -0.803
  0.002  -0.002  -0.802  -0.004   0.001   0.649   0.004  -0.001
  0.001   0.000  -0.004  -0.801   0.003   0.004   0.648  -0.003
 -0.004   0.004   0.001   0.003  -0.803  -0.001  -0.003   0.650


----------------------------------------- Iteration    1(  10)  ---------------------------------------


    POTLOK:  cpu time    0.02: real time    0.02
    SETDIJ:  cpu time    0.02: real time    0.02
    EDDIAG:  cpu time    0.02: real time    0.02
  RMM-DIIS:  cpu time    0.03: real time    0.03
    ORTHCH:  cpu time    0.01: real time    0.01
       DOS:  cpu time    0.00: real time    0.00
    CHARGE:  cpu time    0.04: real time    0.04
    MIXING:  cpu time    0.00: real time    0.00
    --------------------------------------------
      LOOP:  cpu time    0.14: real time    0.14

 eigenvalue-minimisations  :   104
 total energy-change (2. order) :-0.1845196E-03  (-0.2349240E-04)
 number of electron      31.9999999 magnetization 
 augmentation part       -1.7273471 magnetization 

 Broyden mixing:
  rms(total) = 0.42716E-03    rms(broyden)= 0.42670E-03
  rms(prec ) = 0.86658E-03
  weight for this iteration     100.00

 eigenvalues of (default mixing * dielectric matrix)
  average eigenvalue GAMMA=   2.0377
  3.0893  2.6245  2.1630  0.9780  1.3336

 Free energy of the ion-electron system (eV)
  ---------------------------------------------------
  alpha Z        PSCENC =        12.68944982
  Ewald energy   TEWEN  =      -907.56645042
  -1/2 Hartree   DENC   =       -70.84668367
  -exchange  EXHF       =         0.00000000
  -V(xc)+E(xc)   XCENC  =       -72.90951980
  PAW double counting   =       307.80136572     -166.64510275
  entropy T*S    EENTRO =         0.00000000
  eigenvalues    EBANDS =        37.87830540
  atomic energy  EATOM  =       826.37398168
  ---------------------------------------------------
  free energy    TOTEN  =       -33.22465402 eV

  energy without entropy =      -33.22465402  energy(sigma->0) =      -33.22465402


--------------------------------------------------------------------------------------------------------




 average (electrostatic) potential at core
  the test charge radii are     0.9892
  (the norm of the test charge is              1.0000)
       1 -83.2283       2 -83.2250       3 -83.2260       4 -83.2246       5 -83.2253
       6 -83.2255       7 -83.2235       8 -83.2279
 
 
 
 E-fermi :   6.0542     XC(G=0):  -9.1308     alpha+bet :-11.7379


 k-point   1 :       0.0000    0.0000    0.0000
  band No.  band energies     occupation 
      1      -5.9496      2.00000
      2      -1.8828      2.00000
      3      -1.8684      2.00000
      4      -1.8654      2.00000
      5      -1.8625      2.00000
      6      -1.8549      2.00000
      7      -1.8528      2.00000
      8       3.0422      2.00000
      9       3.0492      2.00000
     10       3.0509      2.00000
     11       3.0531      2.00000
     12       3.0545      2.00000
     13       3.0575      2.00000
     14       5.9074      2.00000
     15       5.9201      2.00000
     16       5.9405      2.00000
     17       6.5832      0.00000
     18       6.5908      0.00000
     19       6.5947      0.00000
     20       6.5977      0.00000
     21       6.6027      0.00000
     22       6.6076      0.00000
     23       8.3692      0.00000
     24       8.3814      0.00000
     25       8.3891      0.00000
     26       9.0562      0.00000
     27      13.6117      0.00000
     28      13.6117      0.00000
     29      13.8262      0.00000
     30      15.8219      0.00000
     31      15.8241      0.00000
     32      15.8260      0.00000
     33      15.8285      0.00000
     34      15.8310      0.00000
     35      15.8395      0.00000
     36      16.9421      0.00000
     37      16.9559      0.00000
     38      16.9585      0.00000
     39      16.9757      0.00000
     40      16.9817      0.00000
     41      16.9857      0.00000
     42      16.9896      0.00000
     43      16.9950      0.00000
     44      16.9969      0.00000
     45      18.7102      0.00000
     46      18.7175      0.00000
     47      18.7307      0.00000
     48      18.7369      0.00000


--------------------------------------------------------------------------------------------------------


 soft charge-density along one line, spin component           1
         0         1         2         3         4         5         6         7         8         9
 total charge-density along one line
 
 pseudopotential strength for first ion, spin component:           1
 18.598  -0.001   0.000   0.000   0.000   0.000   0.000   0.000
 -0.001   0.006   0.000   0.000   0.000   0.000   0.000   0.000
  0.000   0.000   4.224   0.000   0.000  -0.005   0.000   0.000
  0.000   0.000   0.000   4.224   0.000   0.000  -0.005   0.000
  0.000   0.000   0.000   0.000   4.224   0.000   0.000  -0.005
  0.000   0.000  -0.005   0.000   0.000   0.005   0.000   0.000
  0.000   0.000   0.000  -0.005   0.000   0.000   0.005   0.000
  0.000   0.000   0.000   0.000  -0.005   0.000   0.000   0.005
 total augmentation occupancy for first ion, spin component:           1
  1.320  -1.089  -0.001  -0.001   0.003   0.002   0.001  -0.004
 -1.089   1.016   0.001   0.000  -0.002  -0.002   0.000   0.004
 -0.001   0.001   1.123   0.002   0.000  -0.802  -0.004   0.001
 -0.001   0.000   0.002   1.122  -0.001  -0.004  -0.802   0.003
  0.003  -0.002   0.000  -0.001   1.124   0.001   0.003  -0.803
  0.002  -0.002  -0.802  -0.004   0.001   0.650   0.004  -0.001
  0.001   0.000  -0.004  -0.802   0.003   0.004   0.649  -0.003
 -0.004   0.004   0.001   0.003  -0.803  -0.001  -0.003   0.650


----------------------------------------- Iteration    1(  11)  ---------------------------------------


    POTLOK:  cpu time    0.04: real time    0.04
    SETDIJ:  cpu time    0.03: real time    0.03
    EDDIAG:  cpu time    0.02: real time    0.02
  RMM-DIIS:  cpu time    0.04: real time    0.04
    ORTHCH:  cpu time    0.01: real time    0.01
       DOS:  cpu time    0.00: real time    0.00
    CHARGE:  cpu time    0.02: real time    0.02
    MIXING:  cpu time    0.00: real time    0.00
    --------------------------------------------
      LOOP:  cpu time    0.16: real time    0.17

 eigenvalue-minimisations  :   115
 total energy-change (2. order) : 0.4424685E-05  (-0.2900848E-06)
 number of electron      31.9999999 magnetization 
 augmentation part       -1.7274425 magnetization 

 Broyden mixing:
  rms(total) = 0.16099E-03    rms(broyden)= 0.16093E-03
  rms(prec ) = 0.31655E-03
  weight for this iteration     100.00

 eigenvalues of (default mixing * dielectric matrix)
  average eigenvalue GAMMA=   1.9622
  3.2086  2.7023  2.1686  1.7342  0.9796  0.9796

 Free energy of the ion-electron system (eV)
  ---------------------------------------------------
  alpha Z        PSCENC =        12.68944982
  Ewald energy   TEWEN  =      -907.56645042
  -1/2 Hartree   DENC   =       -70.82800041
  -exchange  EXHF       =         0.00000000
  -V(xc)+E(xc)   XCENC  =       -72.91090563
  PAW double counting   =       307.73358439     -166.57472313
  entropy T*S    EENTRO =         0.00000000
  eigenvalues    EBANDS =        37.85841411
  atomic energy  EATOM  =       826.37398168
  ---------------------------------------------------
  free energy    TOTEN  =       -33.22464960 eV

  energy without entropy =      -33.22464960  energy(sigma->0) =      -33.22464960


--------------------------------------------------------------------------------------------------------




 average (electrostatic) potential at core
  the test charge radii are     0.9892
  (the norm of the test charge is              1.0000)
       1 -83.2309       2 -83.2269       3 -83.2281       4 -83.2263       5 -83.2272
       6 -83.2275       7 -83.2250       8 -83.2305
 
 
 
 E-fermi :   6.0536     XC(G=0):  -9.1314     alpha+bet :-11.7379


 k-point   1 :       0.0000    0.0000    0.0000
  band No.  band energies     occupation 
      1      -5.9502      2.00000
      2      -1.8837      2.00000
      3      -1.8690      2.00000
      4      -1.8660      2.00000
      5      -1.8631      2.00000
      6      -1.8554      2.00000
      7      -1.8533      2.00000
      8       3.0415      2.00000
      9       3.0487      2.00000
     10       3.0503      2.00000
     11       3.0525      2.00000
     12       3.0540      2.00000
     13       3.0570      2.00000
     14       5.9067      2.00000
     15       5.9194      2.00000
     16       5.9398      2.00000
     17       6.5826      0.00000
     18       6.5902      0.00000
     19       6.5941      0.00000
     20       6.5971      0.00000
     21       6.6020      0.00000
     22       6.6069      0.00000
     23       8.3688      0.00000
     24       8.3810      0.00000
     25       8.3887      0.00000
     26       9.0553      0.00000
     27      13.6114      0.00000
     28      13.6114      0.00000
     29      13.8249      0.00000
     30      15.8212      0.00000
     31      15.8235      0.00000
     32      15.8253      0.00000
     33      15.8278      0.00000
     34      15.8304      0.00000
     35      15.8389      0.00000
     36      16.9416      0.00000
     37      16.9554      0.00000
     38      16.9580      0.00000
     39      16.9751      0.00000
     40      16.9810      0.00000
     41      16.9851      0.00000
     42      16.9891      0.00000
     43      16.9945      0.00000
     44      16.9963      0.00000
     45      18.7115      0.00000
     46      18.7175      0.00000
     47      18.7311      0.00000
     48      18.7363      0.00000


--------------------------------------------------------------------------------------------------------


 soft charge-density along one line, spin component           1
         0         1         2         3         4         5         6         7         8         9
 total charge-density along one line
 
 pseudopotential strength for first ion, spin component:           1
 18.598  -0.001   0.000   0.000   0.000   0.000   0.000   0.000
 -0.001   0.006   0.000   0.000   0.000   0.000   0.000   0.000
  0.000   0.000   4.224   0.000   0.000  -0.005   0.000   0.000
  0.000   0.000   0.000   4.224   0.000   0.000  -0.005   0.000
  0.000   0.000   0.000   0.000   4.224   0.000   0.000  -0.005
  0.000   0.000  -0.005   0.000   0.000   0.005   0.000   0.000
  0.000   0.000   0.000  -0.005   0.000   0.000   0.005   0.000
  0.000   0.000   0.000   0.000  -0.005   0.000   0.000   0.005
 total augmentation occupancy for first ion, spin component:           1
  1.320  -1.088  -0.001  -0.001   0.003   0.002   0.001  -0.004
 -1.088   1.015   0.001   0.000  -0.002  -0.002   0.000   0.004
 -0.001   0.001   1.123   0.002   0.000  -0.802  -0.004   0.001
 -0.001   0.000   0.002   1.122  -0.001  -0.004  -0.802   0.003
  0.003  -0.002   0.000  -0.001   1.124   0.001   0.003  -0.803
  0.002  -0.002  -0.802  -0.004   0.001   0.649   0.004  -0.001
  0.001   0.000  -0.004  -0.802   0.003   0.004   0.649  -0.003
 -0.004   0.004   0.001   0.003  -0.803  -0.001  -0.003   0.650


----------------------------------------- Iteration    1(  12)  ---------------------------------------


    POTLOK:  cpu time    0.02: real time    0.02
    SETDIJ:  cpu time    0.02: real time    0.02
    EDDIAG:  cpu time    0.02: real time    0.02
  RMM-DIIS:  cpu time    0.04: real time    0.04
    ORTHCH:  cpu time    0.01: real time    0.01
       DOS:  cpu time    0.00: real time    0.00
    CHARGE:  cpu time    0.02: real time    0.02
    MIXING:  cpu time    0.00: real time    0.00
    --------------------------------------------
      LOOP:  cpu time    0.13: real time    0.14

 eigenvalue-minimisations  :   126
 total energy-change (2. order) :-0.7276361E-06  (-0.6136470E-07)
 number of electron      31.9999999 magnetization 
 augmentation part       -1.7274280 magnetization 

 Broyden mixing:
  rms(total) = 0.62603E-04    rms(broyden)= 0.62569E-04
  rms(prec ) = 0.88233E-04
  weight for this iteration     100.00

 eigenvalues of (default mixing * dielectric matrix)
  average eigenvalue GAMMA=   1.9998
  3.2110  2.7371  2.4808  2.1033  1.5054  0.9974  0.9636

 Free energy of the ion-electron system (eV)
  ---------------------------------------------------
  alpha Z        PSCENC =        12.68944982
  Ewald energy   TEWEN  =      -907.56645042
  -1/2 Hartree   DENC   =       -70.83271004
  -exchange  EXHF       =         0.00000000
  -V(xc)+E(xc)   XCENC  =       -72.91082240
  PAW double counting   =       307.74217790     -166.58355797
  entropy T*S    EENTRO =         0.00000000
  eigenvalues    EBANDS =        37.86328111
  atomic energy  EATOM  =       826.37398168
  ---------------------------------------------------
  free energy    TOTEN  =       -33.22465033 eV

  energy without entropy =      -33.22465033  energy(sigma->0) =      -33.22465033


--------------------------------------------------------------------------------------------------------




 average (electrostatic) potential at core
  the test charge radii are     0.9892
  (the norm of the test charge is              1.0000)
       1 -83.2304       2 -83.2263       3 -83.2275       4 -83.2258       5 -83.2267
       6 -83.2269       7 -83.2244       8 -83.2300
 
 
 
 E-fermi :   6.0540     XC(G=0):  -9.1311     alpha+bet :-11.7379


 k-point   1 :       0.0000    0.0000    0.0000
  band No.  band energies     occupation 
      1      -5.9500      2.00000
      2      -1.8835      2.00000
      3      -1.8689      2.00000
      4      -1.8658      2.00000
      5      -1.8630      2.00000
      6      -1.8553      2.00000
      7      -1.8532      2.00000
      8       3.0417      2.00000
      9       3.0488      2.00000
     10       3.0505      2.00000
     11       3.0526      2.00000
     12       3.0541      2.00000
[...]
    MIXING:  cpu time    0.00: real time    0.00
    --------------------------------------------
      LOOP:  cpu time    0.16: real time    0.16

 Broyden mixing:
  rms(total) = 0.71171E-02    rms(broyden)= 0.71168E-02
  rms(prec ) = 0.12220E-01
  weight for this iteration     100.00

 eigenvalues of (default mixing * dielectric matrix)
  average eigenvalue GAMMA=   2.0728
  3.0285  2.4851  1.1192  1.6584

 Free energy of the ion-electron system (eV)
  ---------------------------------------------------
  -1/2 Hartree   DENC   =        -4.61540023
  -V(xc)+E(xc)   XCENC  =         0.94977161
  PAW double counting   =         3.10264636       -3.15204436
  entropy T*S    EENTRO =         0.00000000
  eigenvalues    EBANDS =       -24.53026468
  ---------------------------------------------------
  free energy    TOTEN  =       -28.24529130 eV

  energy without entropy =      -28.24529130


----------------------------------------- Iteration    3(   7)  ---------------------------------------


   POT+DIJ:  cpu time    0.08: real time    0.08
    HAMIL1:  cpu time    0.00: real time    0.00
    LRDIAG:  cpu time    0.01: real time    0.01
    LRDIIS:  cpu time    0.02: real time    0.02
    LRDIAG:  cpu time    0.01: real time    0.01
    MIXING:  cpu time    0.00: real time    0.00
    --------------------------------------------
      LOOP:  cpu time    0.15: real time    0.16

 Broyden mixing:
  rms(total) = 0.54378E-03    rms(broyden)= 0.54285E-03
  rms(prec ) = 0.10201E-02
  weight for this iteration     100.00

 eigenvalues of (default mixing * dielectric matrix)
  average eigenvalue GAMMA=   1.9629
  3.0921  2.4079  1.1119  1.6690  1.5335

 Free energy of the ion-electron system (eV)
  ---------------------------------------------------
  -1/2 Hartree   DENC   =        -4.62751457
  -V(xc)+E(xc)   XCENC  =         0.95755578
  PAW double counting   =         3.06513060       -3.11396499
  entropy T*S    EENTRO =         0.00000000
  eigenvalues    EBANDS =       -24.56671962
  ---------------------------------------------------
  free energy    TOTEN  =       -28.28551282 eV

  energy without entropy =      -28.28551282


----------------------------------------- Iteration    3(   8)  ---------------------------------------


   POT+DIJ:  cpu time    0.08: real time    0.08
    HAMIL1:  cpu time    0.01: real time    0.01
    LRDIAG:  cpu time    0.01: real time    0.01
    LRDIIS:  cpu time    0.02: real time    0.02
    LRDIAG:  cpu time    0.01: real time    0.01
    MIXING:  cpu time    0.00: real time    0.00
    --------------------------------------------
      LOOP:  cpu time    0.16: real time    0.16

 Broyden mixing:
  rms(total) = 0.27828E-03    rms(broyden)= 0.27821E-03
  rms(prec ) = 0.41281E-03
  weight for this iteration     100.00

 eigenvalues of (default mixing * dielectric matrix)
  average eigenvalue GAMMA=   1.9062
  3.0890  2.4615  2.0578  1.6641  1.1253  1.0396

 Free energy of the ion-electron system (eV)
  ---------------------------------------------------
  -1/2 Hartree   DENC   =        -4.63100537
  -V(xc)+E(xc)   XCENC  =         0.95847175
  PAW double counting   =         3.06908348       -3.11798406
  entropy T*S    EENTRO =         0.00000000
  eigenvalues    EBANDS =       -24.56772171
  ---------------------------------------------------
  free energy    TOTEN  =       -28.28915590 eV

  energy without entropy =      -28.28915590


----------------------------------------- Iteration    3(   9)  ---------------------------------------


   POT+DIJ:  cpu time    0.08: real time    0.08
    HAMIL1:  cpu time    0.01: real time    0.01
    LRDIAG:  cpu time    0.01: real time    0.01
    LRDIIS:  cpu time    0.02: real time    0.02
    LRDIAG:  cpu time    0.01: real time    0.01
    MIXING:  cpu time    0.00: real time    0.00
    --------------------------------------------
      LOOP:  cpu time    0.16: real time    0.16

 Broyden mixing:
  rms(total) = 0.10370E-03    rms(broyden)= 0.10368E-03
  rms(prec ) = 0.15728E-03
  weight for this iteration     100.00

 eigenvalues of (default mixing * dielectric matrix)
  average eigenvalue GAMMA=   1.8919
  3.1733  2.7219  2.4005  1.6757  1.2701  1.0993  0.9027

 Free energy of the ion-electron system (eV)
  ---------------------------------------------------
  -1/2 Hartree   DENC   =        -4.63069775
  -V(xc)+E(xc)   XCENC  =         0.95841155
  PAW double counting   =         3.07120650       -3.12014380
  entropy T*S    EENTRO =         0.00000000
  eigenvalues    EBANDS =       -24.56798673
  ---------------------------------------------------
  free energy    TOTEN  =       -28.28921023 eV

  energy without entropy =      -28.28921023


----------------------------------------- Iteration    3(  10)  ---------------------------------------


   POT+DIJ:  cpu time    0.08: real time    0.08
    HAMIL1:  cpu time    0.00: real time    0.01
    LRDIAG:  cpu time    0.01: real time    0.01
    LRDIIS:  cpu time    0.02: real time    0.02
    LRDIAG:  cpu time    0.01: real time    0.01
    MIXING:  cpu time    0.00: real time    0.00
    --------------------------------------------
      LOOP:  cpu time    0.16: real time    0.17

 Broyden mixing:
  rms(total) = 0.16408E-04    rms(broyden)= 0.16398E-04
  rms(prec ) = 0.26577E-04
  weight for this iteration     100.00

 eigenvalues of (default mixing * dielectric matrix)
  average eigenvalue GAMMA=   1.8361
  3.1944  2.7675  2.4459  1.6730  1.4463  0.9812  1.1198  1.0610

 Free energy of the ion-electron system (eV)
  ---------------------------------------------------
  -1/2 Hartree   DENC   =        -4.63077591
  -V(xc)+E(xc)   XCENC  =         0.95845271
  PAW double counting   =         3.07231351       -3.12127010
  entropy T*S    EENTRO =         0.00000000
  eigenvalues    EBANDS =       -24.56824270
  ---------------------------------------------------
  free energy    TOTEN  =       -28.28952250 eV

  energy without entropy =      -28.28952250


----------------------------------------- Iteration    3(  11)  ---------------------------------------


   POT+DIJ:  cpu time    0.08: real time    0.08
    HAMIL1:  cpu time    0.00: real time    0.01
    LRDIAG:  cpu time    0.01: real time    0.01
    LRDIIS:  cpu time    0.02: real time    0.02
    LRDIAG:  cpu time    0.01: real time    0.01
    MIXING:  cpu time    0.00: real time    0.00
    --------------------------------------------
      LOOP:  cpu time    0.16: real time    0.16

 Broyden mixing:
  rms(total) = 0.38758E-05    rms(broyden)= 0.38736E-05
  rms(prec ) = 0.57501E-05
  weight for this iteration     100.00

 eigenvalues of (default mixing * dielectric matrix)
  average eigenvalue GAMMA=   1.8720
  3.2007  2.7946  2.4339  2.2046  1.6735  1.4227  1.1081  0.9824  1.0277

 Free energy of the ion-electron system (eV)
  ---------------------------------------------------
  -1/2 Hartree   DENC   =        -4.63078144
  -V(xc)+E(xc)   XCENC  =         0.95844920
  PAW double counting   =         3.07241992       -3.12137830
  entropy T*S    EENTRO =         0.00000000
  eigenvalues    EBANDS =       -24.56822584
  ---------------------------------------------------
  free energy    TOTEN  =       -28.28951647 eV

  energy without entropy =      -28.28951647


----------------------------------------- Iteration    3(  12)  ---------------------------------------


   POT+DIJ:  cpu time    0.08: real time    0.08
    HAMIL1:  cpu time    0.00: real time    0.01
    LRDIAG:  cpu time    0.01: real time    0.01
    LRDIIS:  cpu time    0.02: real time    0.02
    LRDIAG:  cpu time    0.01: real time    0.01
    MIXING:  cpu time    0.00: real time    0.00
    --------------------------------------------
      LOOP:  cpu time    0.15: real time    0.16

 Broyden mixing:
  rms(total) = 0.11927E-05    rms(broyden)= 0.11922E-05
  rms(prec ) = 0.17374E-05
  weight for this iteration     100.00

 eigenvalues of (default mixing * dielectric matrix)
  average eigenvalue GAMMA=   1.8431
  3.2040  2.7920  2.4610  2.3993  1.6725  1.3898  1.3898  1.0045  1.0114  1.1066

 Free energy of the ion-electron system (eV)
  ---------------------------------------------------
  -1/2 Hartree   DENC   =        -4.63078161
  -V(xc)+E(xc)   XCENC  =         0.95844897
  PAW double counting   =         3.07234720       -3.12130431
  entropy T*S    EENTRO =         0.00000000
  eigenvalues    EBANDS =       -24.56822719
  ---------------------------------------------------
  free energy    TOTEN  =       -28.28951695 eV

  energy without entropy =      -28.28951695


----------------------------------------- Iteration    3(  13)  ---------------------------------------


   POT+DIJ:  cpu time    0.08: real time    0.08
    HAMIL1:  cpu time    0.01: real time    0.01
    LRDIAG:  cpu time    0.01: real time    0.01
    LRDIIS:  cpu time    0.02: real time    0.02
    LRDIAG:  cpu time    0.01: real time    0.01
    MIXING:  cpu time    0.00: real time    0.00
    --------------------------------------------
      LOOP:  cpu time    0.15: real time    0.16

 Broyden mixing:
  rms(total) = 0.39198E-06    rms(broyden)= 0.39191E-06
  rms(prec ) = 0.65026E-06
  weight for this iteration     100.00

 eigenvalues of (default mixing * dielectric matrix)
  average eigenvalue GAMMA=   1.8156
  3.2074  2.8264  2.6091  2.4401  1.6678  1.7040  1.3668  1.1147  0.9880  0.9880
  1.0593

 Free energy of the ion-electron system (eV)
  ---------------------------------------------------
  -1/2 Hartree   DENC   =        -4.63078305
  -V(xc)+E(xc)   XCENC  =         0.95844916
  PAW double counting   =         3.07232619       -3.12128293
  entropy T*S    EENTRO =         0.00000000
  eigenvalues    EBANDS =       -24.56822693
  ---------------------------------------------------
  free energy    TOTEN  =       -28.28951756 eV

  energy without entropy =      -28.28951756


------------------------ aborting loop because EDIFF is reached ----------------------------------------


 change of polarisation eV/A/(eV/A) component  3 :     0.301    -0.265    50.538
 dielectric tensor                  component  3 :     0.333    -0.293    56.875


--------------------------------------------------------------------------------------------------------


    FORLOC:  cpu time    0.00: real time    0.00
    FORNL :  cpu time    0.09: real time    0.09
    STRESS:  cpu time    0.30: real time    0.31
    FORCOR:  cpu time    0.02: real time    0.02
    FORLOC:  cpu time    0.00: real time    0.00
    FORNL :  cpu time    0.09: real time    0.09
    STRESS:  cpu time    0.30: real time    0.30
    FORCOR:  cpu time    0.02: real time    0.02
    FORNLD:  cpu time    0.01: real time    0.01

 PIEZOELECTRIC TENSOR FIELD DIRECTION 3  (e Angst)
 -----------------------------------------------------------------------------
    -0.00266 -0.00236  0.00440           ( -0.00001  0.00000  0.00000)
    -0.00236  0.00197  0.00280           (  0.00000 -0.00001  0.00001)
     0.00440  0.00280  0.00570           (  0.00000  0.00001  0.00000)

 PIEZOELECTRIC TENSOR FIELD DIRECTION 3  (C/m^2)
 -----------------------------------------------------------------------------
    -0.00026 -0.00023  0.00043
    -0.00023  0.00019  0.00027
     0.00043  0.00027  0.00056


      POSITION         DIRECTION 3           BORN EFFECTIVE CHARGE    (rigid.aug.   ionic)
 -----------------------------------------------------------------------------------------
      0.00236      5.46637      5.46845     0.03196 -0.09970 -5.70453 (  0.21596  4.00000)
      1.36387      1.36595      1.36558     0.04538  0.07231 -5.81272 (  0.21592  4.00000)
      2.73345      2.73308      0.00092    -0.09357  0.18580 -5.74195 (  0.21593  4.00000)
      4.10058      4.10342      1.36668     0.05244 -0.02105 -5.81835 (  0.21592  4.00000)
      2.73592      5.46918      2.73578    -0.04730 -0.16761 -5.81123 (  0.21592  4.00000)
      4.10168      1.36828      4.10258    -0.07125  0.04462 -5.76173 (  0.21593  4.00000)
      0.00078      2.73508      2.73854     0.07503  0.11361 -5.84997 (  0.21590  4.00000)
      1.36758      4.10604      4.10679    -0.06782 -0.06329 -5.71613 (  0.21595  4.00000)
 -----------------------------------------------------------------------------------------
    total drift (improves with k-points):  -0.07514  0.06468-46.21660




--------------------------------------------------------------------------------------------------------


  LATTYP: Found a simple cubic cell.
 ALAT       =     5.4700000000
  
  Lattice vectors:
  
 A1 = (   5.4700000000,   0.0000000000,   0.0000000000)
 A2 = (   0.0000000000,   5.4700000000,   0.0000000000)
 A3 = (   0.0000000000,   0.0000000000,   5.4700000000)


Analysis of symmetry for initial positions (statically):
=====================================================================
 Subroutine PRICEL returns:
 Original cell was already a primitive cell.
 

 Routine SETGRP: Setting up the symmetry group for a 
 simple cubic supercell.


 Subroutine GETGRP returns: Found  1 space group operations
 (whereof  1 operations were pure point group operations)
 out of a pool of 48 trial point group operations.


The static configuration has the point symmetry C_1 .


Analysis of symmetry for dynamics (positions and initial velocities):
=====================================================================
 Subroutine PRICEL returns:
 Original cell was already a primitive cell.
 

 Routine SETGRP: Setting up the symmetry group for a 
 simple cubic supercell.


 Subroutine GETGRP returns: Found  1 space group operations
 (whereof  1 operations were pure point group operations)
 out of a pool of 48 trial point group operations.


The dynamic configuration has the point symmetry C_1 .


 MACROSCOPIC STATIC DIELECTRIC TENSOR (including local field effects in DFT)
 ------------------------------------------------------
          56.865518    -0.069751     0.333115
          -0.069751    56.867511    -0.293304
           0.333116    -0.293304    56.875301
 ------------------------------------------------------



--------------------------------------------------------------------------------------------------------


  LATTYP: Found a simple cubic cell.
 ALAT       =     5.4700000000
  
  Lattice vectors:
  
 A1 = (   5.4700000000,   0.0000000000,   0.0000000000)
 A2 = (   0.0000000000,   5.4700000000,   0.0000000000)
 A3 = (   0.0000000000,   0.0000000000,   5.4700000000)


Analysis of symmetry for initial positions (statically):
=====================================================================
 Subroutine PRICEL returns:
 Original cell was already a primitive cell.
 

 Routine SETGRP: Setting up the symmetry group for a 
 simple cubic supercell.


 Subroutine GETGRP returns: Found  1 space group operations
 (whereof  1 operations were pure point group operations)
 out of a pool of 48 trial point group operations.


The static configuration has the point symmetry C_1 .


Analysis of symmetry for dynamics (positions and initial velocities):
=====================================================================
 Subroutine PRICEL returns:
 Original cell was already a primitive cell.
 

 Routine SETGRP: Setting up the symmetry group for a 
 simple cubic supercell.


 Subroutine GETGRP returns: Found  1 space group operations
 (whereof  1 operations were pure point group operations)
 out of a pool of 48 trial point group operations.


The dynamic configuration has the point symmetry C_1 .
 
 KPOINTS: Automatic mesh                          

Automatic generation of k-mesh.
Space group operators:
 irot       det(A)        alpha          n_x          n_y          n_z        tau_x        tau_y        tau_z
    1     1.000000     0.000001     1.000000     0.000000     0.000000     0.000000     0.000000     0.000000
 
 Subroutine IBZKPT returns following result:
 ===========================================
 
 Found      1 irreducible k-points:
 
 Following reciprocal coordinates:
            Coordinates               Weight
  0.000000  0.000000  0.000000      1.000000
 
 Following cartesian coordinates:
            Coordinates               Weight
  0.000000  0.000000  0.000000      1.000000
 


--------------------------------------------------------------------------------------------------------




 MACROSCOPIC STATIC DIELECTRIC TENSOR (including local field effects in DFT)
 ------------------------------------------------------
          56.865518    -0.069751     0.333115
          -0.069751    56.867511    -0.293304
           0.333116    -0.293304    56.875301
 ------------------------------------------------------


 PIEZOELECTRIC TENSOR  for field in x, y, z        (e  Angst)
          XX          YY          ZZ          XY          YZ          ZX
  --------------------------------------------------------------------------------
  x     0.00319    -0.00700    -0.00290     0.00500     0.00041     0.00285
  y     0.00181     0.00845     0.00050     0.00299     0.00339     0.00076
  z    -0.00266     0.00197     0.00570    -0.00236     0.00280     0.00440

 PIEZOELECTRIC TENSOR  for field in x, y, z        (C/m^2)
          XX          YY          ZZ          XY          YZ          ZX
  --------------------------------------------------------------------------------
  x     0.00031    -0.00068    -0.00028     0.00049     0.00004     0.00028
  y     0.00018     0.00083     0.00005     0.00029     0.00033     0.00007
  z    -0.00026     0.00019     0.00056    -0.00023     0.00027     0.00043
 
 BORN EFFECTIVE CHARGES (in e, cummulative output)
 -------------------------------------------------
 ion    1
    1    -5.72184     0.03647    -0.05693
    2    -0.03316    -5.70829     0.03704
    3     0.03196    -0.09970    -5.70453
 ion    2
    1    -5.77889    -0.18713    -0.06826
    2     0.16076    -5.80260     0.00891
    3     0.04538     0.07231    -5.81272
 ion    3
    1    -5.77603    -0.02953     0.01658
    2     0.04386    -5.79177    -0.15860
    3    -0.09357     0.18580    -5.74195
 ion    4
    1    -5.81396     0.18914    -0.06097
    2    -0.16329    -5.78626     0.03406
    3     0.05244    -0.02105    -5.81835
 ion    5
    1    -5.79309     0.03209     0.04045
    2    -0.04645    -5.76017     0.17617
    3    -0.04730    -0.16761    -5.81123
 ion    6
    1    -5.79807    -0.09050     0.04209
    2     0.05417    -5.79485    -0.01087
    3    -0.07125     0.04462    -5.76173
 ion    7
    1    -5.81198    -0.02900    -0.03269
    2     0.04721    -5.84468    -0.02375
    3     0.07503     0.11361    -5.84997
 ion    8
    1    -5.71890     0.09561     0.04460
    2    -0.04596    -5.72399     0.00175
    3    -0.06782    -0.06329    -5.71613


--------------------------------------------------------------------------------------------------------


     LOOP+:  cpu time   19.91: real time   20.34
    4ORBIT:  cpu time    0.00: real time    0.00

 total amount of memory used by VASP on root node    32224. kBytes
========================================================================

   base      :      30000. kBytes
   nonl-proj :        202. kBytes
   fftplans  :        782. kBytes
   grid      :       1198. kBytes
   one-center:         24. kBytes
   wavefun   :         18. kBytes
 
  
  
 General timing and accounting informations for this job:
 ========================================================
  
                  Total CPU time used (sec):       20.603
                            User time (sec):       16.924
                          System time (sec):        3.678
                         Elapsed time (sec):       22.540
  
                   Maximum memory used (kb):       78184.
                   Average memory used (kb):           0.
  
                          Minor page faults:       204465
                          Major page faults:            0
                 Voluntary context switches:         1528
