 vasp.5.3.3 18Dez12 (build Jan  9 2014 12:00:49) complex                        
  
 executed on             LinuxIFC date 2014.01.29  10:04:33
 running on   48 total cores
 distrk:  each k-point on   48 cores,    1 groups
 distr:  one band on NCORES_PER_BAND=   1 cores,   48 groups


--------------------------------------------------------------------------------------------------------


 INCAR:
 POTCAR:    PAW Si                                

 ----------------------------------------------------------------------------- 
|                                                                             |
|           W    W    AA    RRRRR   N    N  II  N    N   GGGG   !!!           |
|           W    W   A  A   R    R  NN   N  II  NN   N  G    G  !!!           |
|           W    W  A    A  R    R  N N  N  II  N N  N  G       !!!           |
|           W WW W  AAAAAA  RRRRR   N  N N  II  N  N N  G  GGG   !            |
|           WW  WW  A    A  R   R   N   NN  II  N   NN  G    G                |
|           W    W  A    A  R    R  N    N  II  N    N   GGGG   !!!           |
|                                                                             |
|      For optimal performance we recommend that you set                      |
|        NPAR = 4 - approx SQRT( number of cores)                             |
|      (number of cores/NPAR must be integer)                                 |
|      This setting will greatly improve the performance of VASP for DFT.     |
|      The default NPAR=number of cores might be grossly inefficient          |
|      on modern multi-core architectures or massively parallel machines.     |
|      Do your own testing.                                                   |
|      Unfortunately you need to use the default for hybrid, GW and RPA       |
|      calculations.                                                          |
|                                                                             |
 ----------------------------------------------------------------------------- 

 POTCAR:    PAW Si                                
   VRHFIN =Si: s2p2                                                             
   LEXCH  = 91                                                                  
   EATOM  =   103.3076 eV,    7.5929 Ry                                         
                                                                                
   TITEL  = PAW Si                                                              
   LULTRA =        F    use ultrasoft PP ?                                      
   IUNSCR =        1    unscreen: 0-lin 1-nonlin 2-no                           
   RPACOR =    1.500    partial core radius                                     
   POMASS =   28.085; ZVAL   =    4.000    mass and valenz                      
   RCORE  =    1.900    outmost cutoff radius                                   
   RWIGS  =    2.480; RWIGS  =    1.312    wigner-seitz radius (au A)           
   ENMAX  =  245.435; ENMIN  =  184.076 eV                                      
   ICORE  =        2    local potential                                         
   LCOR   =        T    correct aug charges                                     
   LPAW   =        T    paw PP                                                  
   EAUG   =  322.069                                                            
   DEXC   =    -.001                                                            
   RMAX   =    2.943    core radius for proj-oper                               
   RAUG   =    1.300    factor for augmentation sphere                          
   RDEP   =    1.993    core radius for depl-charge                             
   QCUT   =   -4.247; QGAM   =    8.494    optimization parameters              
                                                                                
   Description                                                                  
     l     E      TYP  RCUT    TYP  RCUT                                        
     0   .000     23  1.900                                                     
     0   .000     23  1.900                                                     
     1   .000     23  1.900                                                     
     1   .000     23  1.900                                                     
     2   .000      7  1.900                                                     
  local pseudopotential read in
  partial core-charges read in
  atomic valenz-charges read in
  non local Contribution for L=           0  read in
    real space projection operators read in
  non local Contribution for L=           0  read in
    real space projection operators read in
  non local Contribution for L=           1  read in
    real space projection operators read in
  non local Contribution for L=           1  read in
    real space projection operators read in
    PAW grid and wavefunctions read in
 
   number of l-projection  operators is LMAX  =           4
   number of lm-projection operators is LMMAX =           8
 
  PAW Si                                :
 energy of atom  1       EATOM= -103.3076
 kinetic energy error for atom=    0.0109 (will be added to EATOM!!)
 
 
 POSCAR: OUTCAR.0013.-1.out 1.0e-02              
  positions in cartesian coordinates
  No initial velocities read in
 exchange correlation table for  LEXCH =        7
   RHO(1)=    0.500       N(1)  =     2000
   RHO(2)=  100.500       N(2)  =     4000

 VTST: version 3.0c, (01/09/14)

 CHAIN: initializing optimizer
 
 OPT: Using VASP Dynamics algorithm
 CHAIN: Read ICHAIN            0
 
 POSCAR: OUTCAR.0013.-1.out 1.0e-02              
  positions in cartesian coordinates
  No initial velocities read in
 


--------------------------------------------------------------------------------------------------------


 ion  position               nearest neighbor table
   1  1.000  0.000  0.000-   4 2.36   6 2.37   2 2.37   8 2.37
   2  0.250  0.250  0.250-   3 2.37   7 2.37   1 2.37   5 2.37
   3  0.500  0.500  0.001-   2 2.37   4 2.37   8 2.37   6 2.37
   4  0.750  0.751  0.250-   1 2.36   5 2.36   3 2.37   7 2.37
   5  0.501  1.000  0.500-   4 2.36   6 2.37   2 2.37   8 2.37
   6  0.750  0.250  0.750-   5 2.37   1 2.37   3 2.37   7 2.37
   7  1.000  0.500  0.499-   2 2.37   4 2.37   8 2.37   6 2.37
   8  0.250  0.749  0.750-   3 2.37   7 2.37   1 2.37   5 2.37
 
  LATTYP: Found a simple cubic cell.
 ALAT       =     5.4700000000
  
  Lattice vectors:
  
 A1 = (   5.4700000000,   0.0000000000,   0.0000000000)
 A2 = (   0.0000000000,   5.4700000000,   0.0000000000)
 A3 = (   0.0000000000,   0.0000000000,   5.4700000000)


Analysis of symmetry for initial positions (statically):
=====================================================================
 Subroutine PRICEL returns:
 Original cell was already a primitive cell.
 

 Routine SETGRP: Setting up the symmetry group for a 
 simple cubic supercell.


 Subroutine GETGRP returns: Found  1 space group operations
 (whereof  1 operations were pure point group operations)
 out of a pool of 48 trial point group operations.


The static configuration has the point symmetry C_1 .


Analysis of symmetry for dynamics (positions and initial velocities):
=====================================================================
 Subroutine PRICEL returns:
 Original cell was already a primitive cell.
 

 Routine SETGRP: Setting up the symmetry group for a 
 simple cubic supercell.


 Subroutine GETGRP returns: Found  1 space group operations
 (whereof  1 operations were pure point group operations)
 out of a pool of 48 trial point group operations.


The dynamic configuration has the point symmetry C_1 .


 irot  :   1
 --------------------------------------------------------------------
 isymop:   1   0   0
           0   1   0
           0   0   1

 gtrans:     0.0000000     0.0000000     0.0000000

 ptrans:     0.0000000     0.0000000     0.0000000
 rotmap:
 (   1->   1)  (   2->   2)  (   3->   3)  (   4->   4)  (   5->   5) 
 (   6->   6)  (   7->   7)  (   8->   8) 
 
 
 KPOINTS: Automatic mesh                          

Automatic generation of k-mesh.
Space group operators:
 irot       det(A)        alpha          n_x          n_y          n_z        tau_x        tau_y        tau_z
    1     1.000000     0.000001     1.000000     0.000000     0.000000     0.000000     0.000000     0.000000
 
 Subroutine IBZKPT returns following result:
 ===========================================
 
 Found      1 irreducible k-points:
 
 Following reciprocal coordinates:
            Coordinates               Weight
  0.000000  0.000000  0.000000      1.000000
 
 Following cartesian coordinates:
            Coordinates               Weight
  0.000000  0.000000  0.000000      1.000000
 
 
 Subroutine IBZKPT_HF returns following result:
 ==============================================
 
 Found      1 k-points in 1st BZ
 the following      1 k-points will be used (e.g. in the exchange kernel)
 Following reciprocal coordinates:   # in IRBZ
  0.000000  0.000000  0.000000       1 t-inv F


--------------------------------------------------------------------------------------------------------




 Dimension of arrays:
   k-points           NKPTS =      1   k-points in BZ     NKDIM =      1   number of bands    NBANDS=     48
   number of dos      NEDOS =    301   number of ions     NIONS =      8
   non local maximal  LDIM  =      4   non local SUM 2l+1 LMDIM =      8
   total plane-waves  NPLWV =  21952
   max r-space proj   IRMAX =      1   max aug-charges    IRDMAX=  36071
   dimension x,y,z NGX =    28 NGY =   28 NGZ =   28
   dimension x,y,z NGXF=    56 NGYF=   56 NGZF=   56
   support grid    NGXF=   112 NGYF=  112 NGZF=  112
   ions per type =               8
 NGX,Y,Z   is equivalent  to a cutoff of   8.51,  8.51,  8.51 a.u.
 NGXF,Y,Z  is equivalent  to a cutoff of  17.02, 17.02, 17.02 a.u.


 I would recommend the setting:
   dimension x,y,z NGX =    19 NGY =   19 NGZ =   19
 SYSTEM =  NAPTHA04                                
 POSCAR =  OUTCAR.0013.-1.out 1.0e-02              

 Startparameter for this run:
   NWRITE =      3    write-flag & timer
   PREC   = normal    normal or accurate (medium, high low for compatibility)
   ISTART =      0    job   : 0-new  1-cont  2-samecut
   ICHARG =      2    charge: 1-file 2-atom 10-const
   ISPIN  =      1    spin polarized calculation?
   LNONCOLLINEAR =      F non collinear calculations
   LSORBIT =      F    spin-orbit coupling
   INIWAV =      1    electr: 0-lowe 1-rand  2-diag
   LASPH  =      F    aspherical Exc in radial PAW
   METAGGA=      F    non-selfconsistent MetaGGA calc.

 Electronic Relaxation 1
   ENCUT  =  200.0 eV  14.70 Ry    3.83 a.u.   6.31  6.31  6.31*2*pi/ulx,y,z
   ENINI  =  200.0     initial cutoff
   ENAUG  =  322.1 eV  augmentation charge cutoff
   NELM   =     60;   NELMIN=  2; NELMDL= -5     # of ELM steps 
   EDIFF  = 0.1E-07   stopping-criterion for ELM
   LREAL  =      F    real-space projection
   NLSPLINE    = F    spline interpolate recip. space projectors
   LCOMPAT=      F    compatible to vasp.4.4
   GGA_COMPAT  = T    GGA compatible to vasp.4.4-vasp.4.6
   LMAXPAW     = -100 max onsite density
   LMAXMIX     =    2 max onsite mixed and CHGCAR
   VOSKOWN=      0    Vosko Wilk Nusair interpolation
   ROPT   =    0.00000
 Ionic relaxation
   EDIFFG = 0.1E-06   stopping-criterion for IOM
   NSW    =      0    number of steps for IOM
   NBLOCK =      1;   KBLOCK =      1    inner block; outer block 
   IBRION =     -1    ionic relax: 0-MD 1-quasi-New 2-CG
   NFREE  =      0    steps in history (QN), initial steepest desc. (CG)
   ISIF   =      2    stress and relaxation
   IWAVPR =     10    prediction:  0-non 1-charg 2-wave 3-comb
   ISYM   =      2    0-nonsym 1-usesym 2-fastsym
   LCORR  =      T    Harris-Foulkes like correction to forces

   POTIM  = 0.5000    time-step for ionic-motion
   TEIN   =    0.0    initial temperature
   TEBEG  =    0.0;   TEEND  =   0.0 temperature during run
   SMASS  =  -3.00    Nose mass-parameter (am)
   estimated Nose-frequenzy (Omega)   =  0.10E-29 period in steps =****** mass=  -0.684E-27a.u.
   SCALEE = 1.0000    scale energy and forces
   NPACO  =    256;   APACO  = 16.0  distance and # of slots for P.C.
   PSTRESS=    0.0 pullay stress

  Mass of Ions in am
   POMASS =  28.09
  Ionic Valenz
   ZVAL   =   4.00
  Atomic Wigner-Seitz radii
   RWIGS  =  -1.00
  virtual crystal weights 
   VCA    =   1.00
   NELECT =      32.0000    total number of electrons
   NUPDOWN=      -1.0000    fix difference up-down

 DOS related values:
   EMIN   =  10.00;   EMAX   =-10.00  energy-range for DOS
   EFERMI =   0.00
   ISMEAR =     0;   SIGMA  =   0.02  broadening in eV -4-tet -1-fermi 0-gaus

 Electronic relaxation 2 (details)
   IALGO  =     68    algorithm
   LDIAG  =      T    sub-space diagonalisation (order eigenvalues)
   LSUBROT=      T    optimize rotation matrix (better conditioning)
   TURBO    =      0    0=normal 1=particle mesh
   IRESTART =      0    0=no restart 2=restart with 2 vectors
   NREBOOT  =      0    no. of reboots
   NMIN     =      0    reboot dimension
   EREF     =   0.00    reference energy to select bands
   IMIX   =      4    mixing-type and parameters
     AMIX     =   0.40;   BMIX     =  1.00
     AMIX_MAG =   1.60;   BMIX_MAG =  1.00
     AMIN     =   0.10
     WC   =   100.;   INIMIX=   1;  MIXPRE=   1;  MAXMIX= -45

 Intra band minimization:
   WEIMIN = 0.0000     energy-eigenvalue tresh-hold
   EBREAK =  0.52E-10  absolut break condition
   DEPER  =   0.30     relativ break condition  

   TIME   =   0.40     timestep for ELM

  volume/ion in A,a.u.               =      20.46       138.06
  Fermi-wavevector in a.u.,A,eV,Ry     =   0.950176  1.795573 12.283814  0.902835
  Thomas-Fermi vector in A             =   2.078528
 
 Write flags
   LWAVE  =      F    write WAVECAR
   LCHARG =      F    write CHGCAR
   LVTOT  =      F    write LOCPOT, total local potential
   LVHAR  =      F    write LOCPOT, Hartree potential only
   LELF   =      F    write electronic localiz. function (ELF)
   LORBIT =      0    0 simple, 1 ext, 2 COOP (PROOUT)


 Dipole corrections
   LMONO  =      F    monopole corrections only (constant potential shift)
   LDIPOL =      F    correct potential (dipole corrections)
   IDIPOL =      0    1-x, 2-y, 3-z, 4-all directions 
   EPSILON=  1.0000000 bulk dielectric constant

 Exchange correlation treatment:
   GGA     =    --    GGA type
   LEXCH   =     7    internal setting for exchange type
   VOSKOWN=      0    Vosko Wilk Nusair interpolation
   LHFCALC =     F    Hartree Fock is set to
   LHFONE  =     F    Hartree Fock one center treatment
   AEXX    =    0.0000 exact exchange contribution

 Linear response parameters
   LEPSILON=     T    determine dielectric tensor
   LRPA    =     F    only Hartree local field effects (RPA)
   LNABLA  =     F    use nabla operator in PAW spheres
   LVEL    =     F    velocity operator in full k-point grid
   LINTERFAST=   F  fast interpolation
   KINTER  =     0    interpolate to denser k-point grid
   CSHIFT  =0.1000    complex shift for real part using Kramers Kronig
   OMEGAMAX=  -1.0    maximum frequency
   DEG_THRESHOLD= 0.2000000E-02 threshold for treating states as degnerate
   RTIME   =    0.100 relaxation time in fs

 Orbital magnetization related:
   ORBITALMAG=     F  switch on orbital magnetization
   LCHIMAG   =     F  perturbation theory with respect to B field
   DQ        =  0.001000  dq finite difference perturbation B field



--------------------------------------------------------------------------------------------------------


 Static calculation
 charge density and potential will be updated during run
 non-spin polarized calculation
 RMM-DIIS sequential band-by-band and
  variant of blocked Davidson during initial phase
 perform sub-space diagonalisation
    before iterative eigenvector-optimisation
 modified Broyden-mixing scheme, WC =      100.0
 initial mixing is a Kerker type mixing with AMIX =  0.4000 and BMIX =      1.0000
 Hartree-type preconditioning will be used
 using additional bands           32
 reciprocal scheme for non local part
 use partial core corrections
 calculate Harris-corrections to forces 
   (improved forces if not selfconsistent)
 use gradient corrections 
 use of overlap-Matrix (Vanderbilt PP)
 Gauss-broadening in eV      SIGMA  =   0.02


--------------------------------------------------------------------------------------------------------


  energy-cutoff  :      200.00
  volume of cell :      163.67
      direct lattice vectors                 reciprocal lattice vectors
     5.470000000  0.000000000  0.000000000     0.182815356  0.000000000  0.000000000
     0.000000000  5.470000000  0.000000000     0.000000000  0.182815356  0.000000000
     0.000000000  0.000000000  5.470000000     0.000000000  0.000000000  0.182815356

  length of vectors
     5.470000000  5.470000000  5.470000000     0.182815356  0.182815356  0.182815356


 
 k-points in units of 2pi/SCALE and weight: Automatic mesh                          
   0.00000000  0.00000000  0.00000000       1.000
 
 k-points in reciprocal lattice and weights: Automatic mesh                          
   0.00000000  0.00000000  0.00000000       1.000
 
 position of ions in fractional coordinates (direct lattice) 
   0.99962778  0.00000415  0.00009964
   0.25000415  0.25009964  0.24998675
   0.50009964  0.49998675  0.00070578
   0.74998675  0.75070578  0.24954795
   0.50070578  0.99954795  0.49986006
   0.74954795  0.24986006  0.74998585
   0.99986006  0.49998585  0.49936339
   0.24998585  0.74936339  0.75044266
 
 position of ions in cartesian coordinates  (Angst):
   5.46796397  0.00002268  0.00054505
   1.36752268  1.36804505  1.36742752
   2.73554505  2.73492752  0.00386061
   4.10242752  4.10636061  1.36502730
   2.73886061  5.46752730  2.73423450
   4.10002730  1.36673450  4.10242259
   5.46923450  2.73492259  2.73151776
   1.36742259  4.09901776  4.10492135
 


--------------------------------------------------------------------------------------------------------


 k-point  1 :   0.0000 0.0000 0.0000  plane waves:    1021

 maximum and minimum number of plane-waves per node :      1021     1021

 maximum number of plane-waves:      1021
 maximum index in each direction: 
   IXMAX=    6   IYMAX=    6   IZMAX=    6
   IXMIN=   -6   IYMIN=   -6   IZMIN=   -6

 NGX is ok and might be reduce to  26
 NGY is ok and might be reduce to  26
 NGZ is ok and might be reduce to  26

 serial   3D FFT for wavefunctions
 parallel 3D FFT for charge:
    minimum data exchange during FFTs selected (reduces bandwidth)


 total amount of memory used by VASP on root node    32224. kBytes
========================================================================

   base      :      30000. kBytes
   nonl-proj :        202. kBytes
   fftplans  :        782. kBytes
   grid      :       1198. kBytes
   one-center:         24. kBytes
   wavefun   :         18. kBytes
 
 Broyden mixing: mesh for mixing (old mesh)
   NGX = 13   NGY = 13   NGZ = 13
  (NGX  = 56   NGY  = 56   NGZ  = 56)
  gives a total of   2197 points

 initial charge density was supplied:
 charge density of overlapping atoms calculated
 number of electron      32.0000000 magnetization 
 keeping initial charge density in first step


--------------------------------------------------------------------------------------------------------


 Maximum index for augmentation-charges         1789 (set IRDMAX)


--------------------------------------------------------------------------------------------------------


 First call to EWALD:  gamma=   0.324
 Maximum number of real-space cells 3x 3x 3
 Maximum number of reciprocal cells 3x 3x 3

 FEWALD executed in parallel
    FEWALD:  cpu time    0.00: real time    0.00


----------------------------------------- Iteration    1(   1)  ---------------------------------------


    POTLOK:  cpu time    0.03: real time    0.03
    SETDIJ:  cpu time    0.02: real time    0.02
     EDDAV:  cpu time    0.40: real time    0.40
       DOS:  cpu time    0.00: real time    0.00
    --------------------------------------------
      LOOP:  cpu time    0.46: real time    0.47

 eigenvalue-minimisations  :    96
 total energy-change (2. order) :-0.1012308E+02  (-0.7956021E+03)
 number of electron      32.0000000 magnetization 
 augmentation part       32.0000000 magnetization 

 Free energy of the ion-electron system (eV)
  ---------------------------------------------------
  alpha Z        PSCENC =        12.68944982
  Ewald energy   TEWEN  =      -907.56629383
  -1/2 Hartree   DENC   =       -45.63673618
  -exchange  EXHF       =         0.00000000
  -V(xc)+E(xc)   XCENC  =       -76.79671021
  PAW double counting   =       265.93453375     -123.69690146
  entropy T*S    EENTRO =        -0.00018646
  eigenvalues    EBANDS =        38.57578338
  atomic energy  EATOM  =       826.37398168
  ---------------------------------------------------
  free energy    TOTEN  =       -10.12307951 eV

  energy without entropy =      -10.12289305  energy(sigma->0) =      -10.12298628


--------------------------------------------------------------------------------------------------------




 average (electrostatic) potential at core
  the test charge radii are     0.9892
  (the norm of the test charge is              1.0000)
       1 -84.3520       2 -84.3502       3 -84.3537       4 -84.3590       5 -84.3498
       6 -84.3489       7 -84.3469       8 -84.3444
 
 
 
 E-fermi :   6.6108     XC(G=0):  -9.5533     alpha+bet :-11.7379


 k-point   1 :       0.0000    0.0000    0.0000
  band No.  band energies     occupation 
      1      -6.5898      2.00000
      2      -2.4153      2.00000
      3      -2.2532      2.00000
      4      -2.1195      2.00000
      5      -2.0351      2.00000
      6      -1.8769      2.00000
      7      -1.6663      2.00000
      8       2.7430      2.00000
      9       2.8482      2.00000
     10       2.9916      2.00000
     11       3.1592      2.00000
     12       3.3475      2.00000
     13       4.0832      2.00000
     14       6.1404      2.00000
     15       6.3638      2.00000
     16       6.5670      1.99805
     17       6.6546      0.00195
     18       6.7985      0.00000
     19       6.9049      0.00000
     20       7.1748      0.00000
     21       7.3746      0.00000
     22       8.0483      0.00000
     23       8.9815      0.00000
     24       9.3775      0.00000
     25      10.4504      0.00000
     26      11.4526      0.00000
     27      13.5063      0.00000
     28      14.7755      0.00000
     29      16.5531      0.00000
     30      16.8932      0.00000
     31      17.3669      0.00000
     32      17.5842      0.00000
     33      17.9218      0.00000
     34      18.1279      0.00000
     35      18.4945      0.00000
     36      18.8864      0.00000
     37      19.3804      0.00000
     38      19.5135      0.00000
     39      19.8593      0.00000
     40      20.2504      0.00000
     41      21.0973      0.00000
     42      21.6818      0.00000
     43      22.1859      0.00000
     44      22.7644      0.00000
     45      23.8920      0.00000
     46      24.3981      0.00000
     47      24.8262      0.00000
     48      25.8369      0.00000


--------------------------------------------------------------------------------------------------------


 soft charge-density along one line, spin component           1
         0         1         2         3         4         5         6         7         8         9
 total charge-density along one line
 
 pseudopotential strength for first ion, spin component:           1
 18.662   0.000   0.000   0.000   0.000   0.000   0.000   0.000
  0.000   0.006   0.000   0.000   0.000   0.000   0.000   0.000
  0.000   0.000   4.216   0.000   0.000  -0.004   0.000   0.000
  0.000   0.000   0.000   4.216   0.000   0.000  -0.004   0.000
  0.000   0.000   0.000   0.000   4.216   0.000   0.000  -0.004
  0.000   0.000  -0.004   0.000   0.000   0.005   0.000   0.000
  0.000   0.000   0.000  -0.004   0.000   0.000   0.005   0.000
  0.000   0.000   0.000   0.000  -0.004   0.000   0.000   0.005
 total augmentation occupancy for first ion, spin component:           1
  2.000   0.000   0.000   0.000   0.000   0.000   0.000   0.000
  0.000   0.000   0.000   0.000   0.000   0.000   0.000   0.000
  0.000   0.000   0.667   0.000   0.000   0.000   0.000   0.000
  0.000   0.000   0.000   0.667   0.000   0.000   0.000   0.000
  0.000   0.000   0.000   0.000   0.667   0.000   0.000   0.000
  0.000   0.000   0.000   0.000   0.000   0.000   0.000   0.000
  0.000   0.000   0.000   0.000   0.000   0.000   0.000   0.000
  0.000   0.000   0.000   0.000   0.000   0.000   0.000   0.000


----------------------------------------- Iteration    1(   2)  ---------------------------------------


     EDDAV:  cpu time    0.98: real time    0.98
       DOS:  cpu time    0.00: real time    0.00
    --------------------------------------------
      LOOP:  cpu time    0.98: real time    0.98

 eigenvalue-minimisations  :   144
 total energy-change (2. order) :-0.2432719E+02  (-0.2432531E+02)
 number of electron      32.0000000 magnetization 
 augmentation part       32.0000000 magnetization 

 Free energy of the ion-electron system (eV)
  ---------------------------------------------------
  alpha Z        PSCENC =        12.68944982
  Ewald energy   TEWEN  =      -907.56629383
  -1/2 Hartree   DENC   =       -45.63673618
  -exchange  EXHF       =         0.00000000
  -V(xc)+E(xc)   XCENC  =       -76.79671021
  PAW double counting   =       265.93453375     -123.69690146
  entropy T*S    EENTRO =         0.00000000
  eigenvalues    EBANDS =        14.24841144
  atomic energy  EATOM  =       826.37398168
  ---------------------------------------------------
  free energy    TOTEN  =       -34.45026499 eV

  energy without entropy =      -34.45026499  energy(sigma->0) =      -34.45026499


--------------------------------------------------------------------------------------------------------




 average (electrostatic) potential at core
  the test charge radii are     0.9892
  (the norm of the test charge is              1.0000)
       1 -84.3520       2 -84.3502       3 -84.3537       4 -84.3590       5 -84.3498
       6 -84.3489       7 -84.3469       8 -84.3444
 
 
 
 E-fermi :   5.2474     XC(G=0):  -9.5533     alpha+bet :-11.7379


 k-point   1 :       0.0000    0.0000    0.0000
  band No.  band energies     occupation 
      1      -6.6372      2.00000
      2      -2.6489      2.00000
      3      -2.6354      2.00000
      4      -2.6326      2.00000
      5      -2.6283      2.00000
      6      -2.6204      2.00000
      7      -2.6094      2.00000
      8       2.3732      2.00000
      9       2.3774      2.00000
     10       2.3793      2.00000
     11       2.3814      2.00000
     12       2.3855      2.00000
     13       2.3992      2.00000
     14       5.0713      2.00000
     15       5.0814      2.00000
     16       5.0876      2.00000
     17       6.1448      0.00000
     18       6.1484      0.00000
     19       6.1533      0.00000
     20       6.1572      0.00000
     21       6.1633      0.00000
     22       6.1726      0.00000
     23       7.8522      0.00000
     24       7.8574      0.00000
     25       7.8621      0.00000
     26       8.1266      0.00000
     27      13.2003      0.00000
     28      13.2618      0.00000
     29      13.2699      0.00000
     30      15.0995      0.00000
     31      15.1320      0.00000
     32      15.1719      0.00000
     33      15.2493      0.00000
     34      15.3123      0.00000
     35      15.6420      0.00000
     36      16.3867      0.00000
     37      16.4207      0.00000
     38      16.4525      0.00000
     39      16.5295      0.00000
     40      16.7224      0.00000
     41      16.7523      0.00000
     42      16.7654      0.00000
     43      16.8651      0.00000
     44      17.2398      0.00000
     45      17.9165      0.00000
     46      17.9589      0.00000
     47      17.9969      0.00000
     48      18.0132      0.00000


--------------------------------------------------------------------------------------------------------


 soft charge-density along one line, spin component           1
         0         1         2         3         4         5         6         7         8         9
 total charge-density along one line
 
 pseudopotential strength for first ion, spin component:           1
 18.662   0.000   0.000   0.000   0.000   0.000   0.000   0.000
  0.000   0.006   0.000   0.000   0.000   0.000   0.000   0.000
  0.000   0.000   4.216   0.000   0.000  -0.004   0.000   0.000
  0.000   0.000   0.000   4.216   0.000   0.000  -0.004   0.000
  0.000   0.000   0.000   0.000   4.216   0.000   0.000  -0.004
  0.000   0.000  -0.004   0.000   0.000   0.005   0.000   0.000
  0.000   0.000   0.000  -0.004   0.000   0.000   0.005   0.000
  0.000   0.000   0.000   0.000  -0.004   0.000   0.000   0.005
 total augmentation occupancy for first ion, spin component:           1
  2.000   0.000   0.000   0.000   0.000   0.000   0.000   0.000
  0.000   0.000   0.000   0.000   0.000   0.000   0.000   0.000
  0.000   0.000   0.667   0.000   0.000   0.000   0.000   0.000
  0.000   0.000   0.000   0.667   0.000   0.000   0.000   0.000
  0.000   0.000   0.000   0.000   0.667   0.000   0.000   0.000
  0.000   0.000   0.000   0.000   0.000   0.000   0.000   0.000
  0.000   0.000   0.000   0.000   0.000   0.000   0.000   0.000
  0.000   0.000   0.000   0.000   0.000   0.000   0.000   0.000


----------------------------------------- Iteration    1(   3)  ---------------------------------------


     EDDAV:  cpu time    0.39: real time    0.39
       DOS:  cpu time    0.00: real time    0.00
    --------------------------------------------
      LOOP:  cpu time    0.40: real time    0.40

 eigenvalue-minimisations  :    96
 total energy-change (2. order) :-0.1673507E+00  (-0.1673507E+00)
 number of electron      32.0000000 magnetization 
 augmentation part       32.0000000 magnetization 

 Free energy of the ion-electron system (eV)
  ---------------------------------------------------
  alpha Z        PSCENC =        12.68944982
  Ewald energy   TEWEN  =      -907.56629383
  -1/2 Hartree   DENC   =       -45.63673618
  -exchange  EXHF       =         0.00000000
  -V(xc)+E(xc)   XCENC  =       -76.79671021
  PAW double counting   =       265.93453375     -123.69690146
  entropy T*S    EENTRO =         0.00000000
  eigenvalues    EBANDS =        14.08106071
  atomic energy  EATOM  =       826.37398168
  ---------------------------------------------------
  free energy    TOTEN  =       -34.61761573 eV

  energy without entropy =      -34.61761573  energy(sigma->0) =      -34.61761573


--------------------------------------------------------------------------------------------------------




 average (electrostatic) potential at core
  the test charge radii are     0.9892
  (the norm of the test charge is              1.0000)
       1 -84.3520       2 -84.3502       3 -84.3537       4 -84.3590       5 -84.3498
       6 -84.3489       7 -84.3469       8 -84.3444
 
 
 
 E-fermi :   5.2223     XC(G=0):  -9.5533     alpha+bet :-11.7379


 k-point   1 :       0.0000    0.0000    0.0000
  band No.  band energies     occupation 
      1      -6.6372      2.00000
      2      -2.6512      2.00000
      3      -2.6375      2.00000
      4      -2.6338      2.00000
      5      -2.6303      2.00000
      6      -2.6225      2.00000
      7      -2.6129      2.00000
      8       2.3691      2.00000
      9       2.3748      2.00000
     10       2.3768      2.00000
     11       2.3781      2.00000
     12       2.3810      2.00000
     13       2.3860      2.00000
     14       5.0604      2.00000
     15       5.0663      2.00000
     16       5.0734      2.00000
     17       6.1406      0.00000
     18       6.1467      0.00000
     19       6.1501      0.00000
     20       6.1537      0.00000
     21       6.1602      0.00000
     22       6.1679      0.00000
     23       7.8458      0.00000
     24       7.8498      0.00000
     25       7.8531      0.00000
     26       8.1178      0.00000
     27      13.1844      0.00000
     28      13.1866      0.00000
     29      13.2693      0.00000
     30      15.0809      0.00000
     31      15.0870      0.00000
     32      15.0939      0.00000
     33      15.1105      0.00000
     34      15.1278      0.00000
     35      15.1870      0.00000
     36      16.3171      0.00000
     37      16.3345      0.00000
     38      16.3417      0.00000
     39      16.3599      0.00000
     40      16.4292      0.00000
     41      16.4928      0.00000
     42      16.7100      0.00000
     43      16.7158      0.00000
     44      16.8194      0.00000
     45      17.8863      0.00000
     46      17.8996      0.00000
     47      17.9198      0.00000
     48      17.9379      0.00000


--------------------------------------------------------------------------------------------------------


 soft charge-density along one line, spin component           1
         0         1         2         3         4         5         6         7         8         9
 total charge-density along one line
 
 pseudopotential strength for first ion, spin component:           1
 18.662   0.000   0.000   0.000   0.000   0.000   0.000   0.000
  0.000   0.006   0.000   0.000   0.000   0.000   0.000   0.000
  0.000   0.000   4.216   0.000   0.000  -0.004   0.000   0.000
  0.000   0.000   0.000   4.216   0.000   0.000  -0.004   0.000
  0.000   0.000   0.000   0.000   4.216   0.000   0.000  -0.004
  0.000   0.000  -0.004   0.000   0.000   0.005   0.000   0.000
  0.000   0.000   0.000  -0.004   0.000   0.000   0.005   0.000
  0.000   0.000   0.000   0.000  -0.004   0.000   0.000   0.005
 total augmentation occupancy for first ion, spin component:           1
  2.000   0.000   0.000   0.000   0.000   0.000   0.000   0.000
  0.000   0.000   0.000   0.000   0.000   0.000   0.000   0.000
  0.000   0.000   0.667   0.000   0.000   0.000   0.000   0.000
  0.000   0.000   0.000   0.667   0.000   0.000   0.000   0.000
  0.000   0.000   0.000   0.000   0.667   0.000   0.000   0.000
  0.000   0.000   0.000   0.000   0.000   0.000   0.000   0.000
  0.000   0.000   0.000   0.000   0.000   0.000   0.000   0.000
  0.000   0.000   0.000   0.000   0.000   0.000   0.000   0.000


----------------------------------------- Iteration    1(   4)  ---------------------------------------


     EDDAV:  cpu time    2.01: real time    2.01
       DOS:  cpu time    0.00: real time    0.00
    --------------------------------------------
      LOOP:  cpu time    2.02: real time    2.02

 eigenvalue-minimisations  :   192
 total energy-change (2. order) :-0.3548481E-03  (-0.3548481E-03)
 number of electron      32.0000000 magnetization 
 augmentation part       32.0000000 magnetization 

 Free energy of the ion-electron system (eV)
  ---------------------------------------------------
  alpha Z        PSCENC =        12.68944982
  Ewald energy   TEWEN  =      -907.56629383
  -1/2 Hartree   DENC   =       -45.63673618
  -exchange  EXHF       =         0.00000000
  -V(xc)+E(xc)   XCENC  =       -76.79671021
  PAW double counting   =       265.93453375     -123.69690146
  entropy T*S    EENTRO =         0.00000000
  eigenvalues    EBANDS =        14.08070586
  atomic energy  EATOM  =       826.37398168
  ---------------------------------------------------
  free energy    TOTEN  =       -34.61797057 eV

  energy without entropy =      -34.61797057  energy(sigma->0) =      -34.61797057


--------------------------------------------------------------------------------------------------------




 average (electrostatic) potential at core
  the test charge radii are     0.9892
  (the norm of the test charge is              1.0000)
       1 -84.3520       2 -84.3502       3 -84.3537       4 -84.3590       5 -84.3498
       6 -84.3489       7 -84.3469       8 -84.3444
 
 
 
 E-fermi :   5.2025     XC(G=0):  -9.5533     alpha+bet :-11.7379


 k-point   1 :       0.0000    0.0000    0.0000
  band No.  band energies     occupation 
      1      -6.6372      2.00000
      2      -2.6512      2.00000
      3      -2.6375      2.00000
      4      -2.6338      2.00000
      5      -2.6303      2.00000
      6      -2.6225      2.00000
      7      -2.6130      2.00000
      8       2.3691      2.00000
      9       2.3748      2.00000
     10       2.3768      2.00000
     11       2.3781      2.00000
     12       2.3810      2.00000
     13       2.3860      2.00000
     14       5.0603      2.00000
     15       5.0663      2.00000
     16       5.0734      2.00000
     17       6.1405      0.00000
     18       6.1467      0.00000
     19       6.1501      0.00000
     20       6.1537      0.00000
     21       6.1602      0.00000
     22       6.1679      0.00000
     23       7.8458      0.00000
     24       7.8498      0.00000
     25       7.8531      0.00000
     26       8.1178      0.00000
     27      13.1837      0.00000
     28      13.1838      0.00000
     29      13.2692      0.00000
     30      15.0723      0.00000
     31      15.0812      0.00000
     32      15.0834      0.00000
     33      15.0864      0.00000
     34      15.0878      0.00000
     35      15.0975      0.00000
     36      16.2909      0.00000
     37      16.3003      0.00000
     38      16.3076      0.00000
     39      16.3129      0.00000
     40      16.3210      0.00000
     41      16.3298      0.00000
     42      16.7002      0.00000
     43      16.7047      0.00000
     44      16.7085      0.00000
     45      17.8694      0.00000
     46      17.8817      0.00000
     47      17.8868      0.00000
     48      17.8968      0.00000


--------------------------------------------------------------------------------------------------------


 soft charge-density along one line, spin component           1
         0         1         2         3         4         5         6         7         8         9
 total charge-density along one line
 
 pseudopotential strength for first ion, spin component:           1
 18.662   0.000   0.000   0.000   0.000   0.000   0.000   0.000
  0.000   0.006   0.000   0.000   0.000   0.000   0.000   0.000
  0.000   0.000   4.216   0.000   0.000  -0.004   0.000   0.000
  0.000   0.000   0.000   4.216   0.000   0.000  -0.004   0.000
  0.000   0.000   0.000   0.000   4.216   0.000   0.000  -0.004
  0.000   0.000  -0.004   0.000   0.000   0.005   0.000   0.000
  0.000   0.000   0.000  -0.004   0.000   0.000   0.005   0.000
  0.000   0.000   0.000   0.000  -0.004   0.000   0.000   0.005
 total augmentation occupancy for first ion, spin component:           1
  2.000   0.000   0.000   0.000   0.000   0.000   0.000   0.000
  0.000   0.000   0.000   0.000   0.000   0.000   0.000   0.000
  0.000   0.000   0.667   0.000   0.000   0.000   0.000   0.000
  0.000   0.000   0.000   0.667   0.000   0.000   0.000   0.000
  0.000   0.000   0.000   0.000   0.667   0.000   0.000   0.000
  0.000   0.000   0.000   0.000   0.000   0.000   0.000   0.000
  0.000   0.000   0.000   0.000   0.000   0.000   0.000   0.000
  0.000   0.000   0.000   0.000   0.000   0.000   0.000   0.000


----------------------------------------- Iteration    1(   5)  ---------------------------------------


     EDDAV:  cpu time    0.39: real time    0.39
       DOS:  cpu time    0.00: real time    0.00
    CHARGE:  cpu time    0.02: real time    0.02
    MIXING:  cpu time    0.00: real time    0.00
    --------------------------------------------
      LOOP:  cpu time    0.42: real time    0.42

 eigenvalue-minimisations  :    96
 total energy-change (2. order) :-0.3072728E-08  (-0.3073154E-08)
 number of electron      31.9999999 magnetization 
 augmentation part       -1.8053363 magnetization 

 Broyden mixing:
  rms(total) = 0.79306E+00    rms(broyden)= 0.79301E+00
  rms(prec ) = 0.15229E+01
  weight for this iteration     100.00

 Free energy of the ion-electron system (eV)
  ---------------------------------------------------
  alpha Z        PSCENC =        12.68944982
  Ewald energy   TEWEN  =      -907.56629383
  -1/2 Hartree   DENC   =       -45.63673618
  -exchange  EXHF       =         0.00000000
  -V(xc)+E(xc)   XCENC  =       -76.79671021
  PAW double counting   =       265.93453375     -123.69690146
  entropy T*S    EENTRO =         0.00000000
  eigenvalues    EBANDS =        14.08070585
  atomic energy  EATOM  =       826.37398168
  ---------------------------------------------------
  free energy    TOTEN  =       -34.61797058 eV

  energy without entropy =      -34.61797058  energy(sigma->0) =      -34.61797058


--------------------------------------------------------------------------------------------------------




 average (electrostatic) potential at core
  the test charge radii are     0.9892
  (the norm of the test charge is              1.0000)
       1 -84.3520       2 -84.3502       3 -84.3537       4 -84.3590       5 -84.3498
       6 -84.3489       7 -84.3469       8 -84.3444
 
 
 
 E-fermi :   5.1983     XC(G=0):  -9.5533     alpha+bet :-11.7379


 k-point   1 :       0.0000    0.0000    0.0000
  band No.  band energies     occupation 
      1      -6.6372      2.00000
      2      -2.6512      2.00000
      3      -2.6375      2.00000
      4      -2.6338      2.00000
      5      -2.6303      2.00000
      6      -2.6225      2.00000
      7      -2.6130      2.00000
      8       2.3691      2.00000
      9       2.3748      2.00000
     10       2.3768      2.00000
     11       2.3781      2.00000
     12       2.3810      2.00000
     13       2.3860      2.00000
     14       5.0603      2.00000
     15       5.0663      2.00000
     16       5.0734      2.00000
     17       6.1405      0.00000
     18       6.1467      0.00000
     19       6.1501      0.00000
     20       6.1537      0.00000
     21       6.1602      0.00000
     22       6.1679      0.00000
     23       7.8458      0.00000
     24       7.8498      0.00000
     25       7.8531      0.00000
     26       8.1178      0.00000
     27      13.1837      0.00000
     28      13.1838      0.00000
     29      13.2692      0.00000
     30      15.0722      0.00000
     31      15.0812      0.00000
     32      15.0834      0.00000
     33      15.0863      0.00000
     34      15.0878      0.00000
     35      15.0974      0.00000
     36      16.2906      0.00000
     37      16.3000      0.00000
     38      16.3070      0.00000
     39      16.3126      0.00000
     40      16.3208      0.00000
     41      16.3295      0.00000
     42      16.7001      0.00000
     43      16.7047      0.00000
     44      16.7082      0.00000
     45      17.8641      0.00000
     46      17.8769      0.00000
     47      17.8810      0.00000
     48      17.8880      0.00000


--------------------------------------------------------------------------------------------------------


 soft charge-density along one line, spin component           1
         0         1         2         3         4         5         6         7         8         9
 total charge-density along one line
 
 pseudopotential strength for first ion, spin component:           1
 18.662   0.000   0.000   0.000   0.000   0.000   0.000   0.000
  0.000   0.006   0.000   0.000   0.000   0.000   0.000   0.000
  0.000   0.000   4.216   0.000   0.000  -0.004   0.000   0.000
  0.000   0.000   0.000   4.216   0.000   0.000  -0.004   0.000
  0.000   0.000   0.000   0.000   4.216   0.000   0.000  -0.004
  0.000   0.000  -0.004   0.000   0.000   0.005   0.000   0.000
  0.000   0.000   0.000  -0.004   0.000   0.000   0.005   0.000
  0.000   0.000   0.000   0.000  -0.004   0.000   0.000   0.005
 total augmentation occupancy for first ion, spin component:           1
  1.380  -1.052  -0.001   0.002  -0.002   0.001  -0.002   0.002
 -1.052   0.920   0.001  -0.001   0.001  -0.002   0.002  -0.002
 -0.001   0.001   1.165  -0.001   0.001  -0.759   0.001  -0.001
  0.002  -0.001  -0.001   1.163  -0.001   0.002  -0.758   0.001
 -0.002   0.001   0.001  -0.001   1.166  -0.001   0.001  -0.759
  0.001  -0.002  -0.759   0.002  -0.001   0.570  -0.002   0.001
 -0.002   0.002   0.001  -0.758   0.001  -0.002   0.569  -0.001
  0.002  -0.002  -0.001   0.001  -0.759   0.001  -0.001   0.571


----------------------------------------- Iteration    1(   6)  ---------------------------------------


    POTLOK:  cpu time    0.02: real time    0.02
    SETDIJ:  cpu time    0.02: real time    0.02
    EDDIAG:  cpu time    0.03: real time    0.03
  RMM-DIIS:  cpu time    0.05: real time    0.05
    ORTHCH:  cpu time    0.01: real time    0.01
       DOS:  cpu time    0.00: real time    0.00
    CHARGE:  cpu time    0.02: real time    0.02
    MIXING:  cpu time    0.00: real time    0.00
    --------------------------------------------
      LOOP:  cpu time    0.16: real time    0.16

 eigenvalue-minimisations  :    96
 total energy-change (2. order) : 0.1001709E+01  (-0.3198272E-01)
 number of electron      31.9999999 magnetization 
 augmentation part       -1.7684078 magnetization 

 Broyden mixing:
  rms(total) = 0.47399E+00    rms(broyden)= 0.47399E+00
  rms(prec ) = 0.91065E+00
  weight for this iteration     100.00

 eigenvalues of (default mixing * dielectric matrix)
  average eigenvalue GAMMA=   2.4573
  2.4573

 Free energy of the ion-electron system (eV)
  ---------------------------------------------------
  alpha Z        PSCENC =        12.68944982
  Ewald energy   TEWEN  =      -907.56629383
  -1/2 Hartree   DENC   =       -54.68324244
  -exchange  EXHF       =         0.00000000
  -V(xc)+E(xc)   XCENC  =       -75.44941232
  PAW double counting   =       286.06062494     -144.35893151
  entropy T*S    EENTRO =         0.00000000
  eigenvalues    EBANDS =        23.31756203
  atomic energy  EATOM  =       826.37398168
  ---------------------------------------------------
  free energy    TOTEN  =       -33.61626164 eV

  energy without entropy =      -33.61626164  energy(sigma->0) =      -33.61626164


--------------------------------------------------------------------------------------------------------




 average (electrostatic) potential at core
  the test charge radii are     0.9892
  (the norm of the test charge is              1.0000)
       1 -83.8335       2 -83.8327       3 -83.8343       4 -83.8369       5 -83.8324
       6 -83.8320       7 -83.8310       8 -83.8298
 
 
 
 E-fermi :   5.5485     XC(G=0):  -9.4504     alpha+bet :-11.7379


 k-point   1 :       0.0000    0.0000    0.0000
  band No.  band energies     occupation 
      1      -6.3788      2.00000
      2      -2.3494      2.00000
      3      -2.3376      2.00000
      4      -2.3346      2.00000
      5      -2.3315      2.00000
      6      -2.3249      2.00000
      7      -2.3167      2.00000
      8       2.6313      2.00000
      9       2.6361      2.00000
     10       2.6380      2.00000
     11       2.6390      2.00000
     12       2.6418      2.00000
     13       2.6460      2.00000
     14       5.3938      2.00000
     15       5.3996      2.00000
     16       5.4066      2.00000
     17       6.2563      0.00000
     18       6.2619      0.00000
     19       6.2647      0.00000
     20       6.2682      0.00000
     21       6.2740      0.00000
     22       6.2806      0.00000
     23       8.0531      0.00000
     24       8.0571      0.00000
     25       8.0605      0.00000
     26       8.4862      0.00000
     27      13.3049      0.00000
     28      13.3568      0.00000
     29      13.3569      0.00000
     30      15.3694      0.00000
     31      15.3773      0.00000
     32      15.3797      0.00000
     33      15.3823      0.00000
     34      15.3839      0.00000
     35      15.3926      0.00000
     36      16.5281      0.00000
     37      16.5368      0.00000
     38      16.5432      0.00000
     39      16.5482      0.00000
     40      16.5556      0.00000
     41      16.5636      0.00000
     42      16.7446      0.00000
     43      16.7494      0.00000
     44      16.7529      0.00000
     45      18.1525      0.00000
     46      18.1651      0.00000
     47      18.1714      0.00000
     48      18.1735      0.00000


--------------------------------------------------------------------------------------------------------


 soft charge-density along one line, spin component           1
         0         1         2         3         4         5         6         7         8         9
 total charge-density along one line
 
 pseudopotential strength for first ion, spin component:           1
 18.635  -0.001   0.000   0.000   0.000   0.000   0.000   0.000
 -0.001   0.006   0.000   0.000   0.000   0.000   0.000   0.000
  0.000   0.000   4.221   0.000   0.000  -0.004   0.000   0.000
  0.000   0.000   0.000   4.221   0.000   0.000  -0.004   0.000
  0.000   0.000   0.000   0.000   4.221   0.000   0.000  -0.004
  0.000   0.000  -0.004   0.000   0.000   0.005   0.000   0.000
  0.000   0.000   0.000  -0.004   0.000   0.000   0.005   0.000
  0.000   0.000   0.000   0.000  -0.004   0.000   0.000   0.005
 total augmentation occupancy for first ion, spin component:           1
  1.351  -1.091  -0.001   0.002  -0.002   0.002  -0.002   0.002
 -1.091   0.998   0.000   0.000   0.001  -0.002   0.002  -0.002
 -0.001   0.000   1.147  -0.001   0.001  -0.782   0.002  -0.001
  0.002   0.000  -0.001   1.146  -0.001   0.002  -0.781   0.001
 -0.002   0.001   0.001  -0.001   1.148  -0.001   0.001  -0.783
  0.002  -0.002  -0.782   0.002  -0.001   0.608  -0.002   0.002
 -0.002   0.002   0.002  -0.781   0.001  -0.002   0.607  -0.001
  0.002  -0.002  -0.001   0.001  -0.783   0.002  -0.001   0.609


----------------------------------------- Iteration    1(   7)  ---------------------------------------


    POTLOK:  cpu time    0.02: real time    0.02
    SETDIJ:  cpu time    0.02: real time    0.02
    EDDIAG:  cpu time    0.02: real time    0.02
  RMM-DIIS:  cpu time    0.03: real time    0.03
    ORTHCH:  cpu time    0.01: real time    0.01
       DOS:  cpu time    0.00: real time    0.00
    CHARGE:  cpu time    0.02: real time    0.02
    MIXING:  cpu time    0.00: real time    0.00
    --------------------------------------------
      LOOP:  cpu time    0.13: real time    0.13

 eigenvalue-minimisations  :    96
 total energy-change (2. order) : 0.4246591E+00  (-0.7388529E-01)
 number of electron      31.9999999 magnetization 
 augmentation part       -1.7214521 magnetization 

 Broyden mixing:
  rms(total) = 0.46254E-01    rms(broyden)= 0.46244E-01
  rms(prec ) = 0.78467E-01
  weight for this iteration     100.00

 eigenvalues of (default mixing * dielectric matrix)
  average eigenvalue GAMMA=   2.5299
  2.5299  2.5299

 Free energy of the ion-electron system (eV)
  ---------------------------------------------------
  alpha Z        PSCENC =        12.68944982
  Ewald energy   TEWEN  =      -907.56629383
  -1/2 Hartree   DENC   =       -70.51396032
  -exchange  EXHF       =         0.00000000
  -V(xc)+E(xc)   XCENC  =       -73.00931084
  PAW double counting   =       313.72431293     -172.73631539
  entropy T*S    EENTRO =         0.00000000
  eigenvalues    EBANDS =        37.84653345
  atomic energy  EATOM  =       826.37398168
  ---------------------------------------------------
  free energy    TOTEN  =       -33.19160250 eV

  energy without entropy =      -33.19160250  energy(sigma->0) =      -33.19160250


--------------------------------------------------------------------------------------------------------




 average (electrostatic) potential at core
  the test charge radii are     0.9892
  (the norm of the test charge is              1.0000)
       1 -83.1456       2 -83.1458       3 -83.1467       4 -83.1478       5 -83.1454
       6 -83.1452       7 -83.1440       8 -83.1438
 
 
 
 E-fermi :   6.0969     XC(G=0):  -9.2018     alpha+bet :-11.7379


 k-point   1 :       0.0000    0.0000    0.0000
  band No.  band energies     occupation 
      1      -5.9621      2.00000
      2      -1.8805      2.00000
      3      -1.8704      2.00000
      4      -1.8680      2.00000
      5      -1.8651      2.00000
      6      -1.8595      2.00000
      7      -1.8526      2.00000
      8       3.0448      2.00000
      9       3.0485      2.00000
     10       3.0507      2.00000
     11       3.0515      2.00000
     12       3.0545      2.00000
     13       3.0577      2.00000
     14       5.9186      2.00000
     15       5.9242      2.00000
     16       5.9310      2.00000
     17       6.5163      0.00000
     18       6.5212      0.00000
     19       6.5234      0.00000
     20       6.5265      0.00000
     21       6.5316      0.00000
     22       6.5370      0.00000
     23       8.3782      0.00000
     24       8.3823      0.00000
     25       8.3857      0.00000
     26       9.0452      0.00000
     27      13.6012      0.00000
     28      13.6204      0.00000
     29      13.6204      0.00000
     30      15.8204      0.00000
     31      15.8276      0.00000
     32      15.8298      0.00000
     33      15.8321      0.00000
     34      15.8335      0.00000
     35      15.8414      0.00000
     36      16.8990      0.00000
     37      16.9026      0.00000
     38      16.9067      0.00000
     39      16.9501      0.00000
     40      16.9578      0.00000
     41      16.9631      0.00000
     42      16.9672      0.00000
     43      16.9744      0.00000
     44      16.9809      0.00000
     45      18.6503      0.00000
     46      18.6610      0.00000
     47      18.6684      0.00000
     48      18.6754      0.00000


--------------------------------------------------------------------------------------------------------


 soft charge-density along one line, spin component           1
         0         1         2         3         4         5         6         7         8         9
 total charge-density along one line
 
 pseudopotential strength for first ion, spin component:           1
 18.596  -0.001   0.000   0.000   0.000   0.000   0.000   0.000
 -0.001   0.006   0.000   0.000   0.000   0.000   0.000   0.000
  0.000   0.000   4.227   0.000   0.000  -0.005   0.000   0.000
  0.000   0.000   0.000   4.227   0.000   0.000  -0.005   0.000
  0.000   0.000   0.000   0.000   4.227   0.000   0.000  -0.005
  0.000   0.000  -0.005   0.000   0.000   0.005   0.000   0.000
  0.000   0.000   0.000  -0.005   0.000   0.000   0.005   0.000
  0.000   0.000   0.000   0.000  -0.005   0.000   0.000   0.005
 total augmentation occupancy for first ion, spin component:           1
  1.315  -1.112  -0.002   0.003  -0.002   0.002  -0.003   0.003
 -1.112   1.059   0.000   0.001   0.000  -0.002   0.002  -0.002
 -0.002   0.000   1.122  -0.002   0.002  -0.805   0.002  -0.002
  0.003   0.001  -0.002   1.121  -0.001   0.002  -0.804   0.001
 -0.002   0.000   0.002  -0.001   1.123  -0.002   0.001  -0.806
  0.002  -0.002  -0.805   0.002  -0.002   0.652  -0.002   0.002
 -0.003   0.002   0.002  -0.804   0.001  -0.002   0.651  -0.001
  0.003  -0.002  -0.002   0.001  -0.806   0.002  -0.001   0.653


----------------------------------------- Iteration    1(   8)  ---------------------------------------


    POTLOK:  cpu time    0.02: real time    0.02
    SETDIJ:  cpu time    0.02: real time    0.02
    EDDIAG:  cpu time    0.02: real time    0.02
  RMM-DIIS:  cpu time    0.03: real time    0.03
    ORTHCH:  cpu time    0.01: real time    0.01
       DOS:  cpu time    0.00: real time    0.00
    CHARGE:  cpu time    0.02: real time    0.02
    MIXING:  cpu time    0.00: real time    0.00
    --------------------------------------------
      LOOP:  cpu time    0.13: real time    0.13

 eigenvalue-minimisations  :    96
 total energy-change (2. order) :-0.3197313E-01  (-0.2161045E-02)
 number of electron      31.9999999 magnetization 
 augmentation part       -1.7275463 magnetization 

 Broyden mixing:
  rms(total) = 0.75073E-02    rms(broyden)= 0.75068E-02
  rms(prec ) = 0.17991E-01
  weight for this iteration     100.00

 eigenvalues of (default mixing * dielectric matrix)
  average eigenvalue GAMMA=   2.1204
  1.2721  2.8639  2.2252

 Free energy of the ion-electron system (eV)
  ---------------------------------------------------
  alpha Z        PSCENC =        12.68944982
  Ewald energy   TEWEN  =      -907.56629383
  -1/2 Hartree   DENC   =       -70.39876316
  -exchange  EXHF       =         0.00000000
  -V(xc)+E(xc)   XCENC  =       -72.96578563
  PAW double counting   =       307.36504643     -166.19232751
  entropy T*S    EENTRO =         0.00000000
  eigenvalues    EBANDS =        37.47111657
  atomic energy  EATOM  =       826.37398168
  ---------------------------------------------------
  free energy    TOTEN  =       -33.22357563 eV

  energy without entropy =      -33.22357563  energy(sigma->0) =      -33.22357563


--------------------------------------------------------------------------------------------------------




 average (electrostatic) potential at core
  the test charge radii are     0.9892
  (the norm of the test charge is              1.0000)
       1 -83.2494       2 -83.2484       3 -83.2509       4 -83.2546       5 -83.2479
       6 -83.2473       7 -83.2455       8 -83.2438
 
 
 
 E-fermi :   6.0361     XC(G=0):  -9.1505     alpha+bet :-11.7379


 k-point   1 :       0.0000    0.0000    0.0000
  band No.  band energies     occupation 
      1      -5.9632      2.00000
      2      -1.8936      2.00000
      3      -1.8824      2.00000
      4      -1.8797      2.00000
      5      -1.8766      2.00000
      6      -1.8703      2.00000
      7      -1.8627      2.00000
      8       3.0327      2.00000
      9       3.0368      2.00000
     10       3.0391      2.00000
     11       3.0401      2.00000
     12       3.0433      2.00000
     13       3.0468      2.00000
     14       5.9025      2.00000
     15       5.9081      2.00000
     16       5.9150      2.00000
     17       6.5666      0.00000
     18       6.5718      0.00000
     19       6.5742      0.00000
     20       6.5773      0.00000
     21       6.5827      0.00000
     22       6.5884      0.00000
     23       8.3675      0.00000
     24       8.3716      0.00000
     25       8.3750      0.00000
     26       9.0381      0.00000
     27      13.6064      0.00000
     28      13.6064      0.00000
     29      13.7782      0.00000
     30      15.8055      0.00000
     31      15.8133      0.00000
     32      15.8151      0.00000
     33      15.8175      0.00000
     34      15.8187      0.00000
     35      15.8271      0.00000
     36      16.9353      0.00000
     37      16.9385      0.00000
     38      16.9421      0.00000
     39      16.9572      0.00000
     40      16.9648      0.00000
     41      16.9699      0.00000
     42      16.9738      0.00000
     43      16.9816      0.00000
     44      16.9881      0.00000
     45      18.6866      0.00000
     46      18.6973      0.00000
     47      18.7055      0.00000
     48      18.7140      0.00000


--------------------------------------------------------------------------------------------------------


 soft charge-density along one line, spin component           1
         0         1         2         3         4         5         6         7         8         9
 total charge-density along one line
 
 pseudopotential strength for first ion, spin component:           1
 18.599  -0.001   0.000   0.000   0.000   0.000   0.000   0.000
 -0.001   0.006   0.000   0.000   0.000   0.000   0.000   0.000
  0.000   0.000   4.224   0.000   0.000  -0.005   0.000   0.000
  0.000   0.000   0.000   4.224   0.000   0.000  -0.005   0.000
  0.000   0.000   0.000   0.000   4.224   0.000   0.000  -0.005
  0.000   0.000  -0.005   0.000   0.000   0.005   0.000   0.000
  0.000   0.000   0.000  -0.005   0.000   0.000   0.005   0.000
  0.000   0.000   0.000   0.000  -0.005   0.000   0.000   0.005
 total augmentation occupancy for first ion, spin component:           1
  1.320  -1.093  -0.001   0.002  -0.002   0.002  -0.002   0.003
 -1.093   1.022   0.000   0.000   0.000  -0.002   0.002  -0.002
 -0.001   0.000   1.123  -0.001   0.002  -0.801   0.002  -0.002
  0.002   0.000  -0.001   1.122  -0.001   0.002  -0.800   0.001
 -0.002   0.000   0.002  -0.001   1.124  -0.002   0.001  -0.802
  0.002  -0.002  -0.801   0.002  -0.002   0.647  -0.002   0.002
 -0.002   0.002   0.002  -0.800   0.001  -0.002   0.646  -0.001
  0.003  -0.002  -0.002   0.001  -0.802   0.002  -0.001   0.648


----------------------------------------- Iteration    1(   9)  ---------------------------------------


    POTLOK:  cpu time    0.02: real time    0.02
    SETDIJ:  cpu time    0.02: real time    0.02
    EDDIAG:  cpu time    0.02: real time    0.02
  RMM-DIIS:  cpu time    0.03: real time    0.03
    ORTHCH:  cpu time    0.01: real time    0.01
       DOS:  cpu time    0.00: real time    0.00
    CHARGE:  cpu time    0.02: real time    0.02
    MIXING:  cpu time    0.00: real time    0.00
    --------------------------------------------
      LOOP:  cpu time    0.13: real time    0.13

 eigenvalue-minimisations  :   105
 total energy-change (2. order) :-0.1137011E-02  (-0.1266758E-03)
 number of electron      31.9999999 magnetization 
 augmentation part       -1.7274658 magnetization 

 Broyden mixing:
  rms(total) = 0.41782E-02    rms(broyden)= 0.41781E-02
  rms(prec ) = 0.68501E-02
  weight for this iteration     100.00

 eigenvalues of (default mixing * dielectric matrix)
  average eigenvalue GAMMA=   2.2824
  0.9850  3.1928  2.6601  2.2919

 Free energy of the ion-electron system (eV)
  ---------------------------------------------------
  alpha Z        PSCENC =        12.68944982
  Ewald energy   TEWEN  =      -907.56629383
  -1/2 Hartree   DENC   =       -70.79557102
  -exchange  EXHF       =         0.00000000
  -V(xc)+E(xc)   XCENC  =       -72.90652739
  PAW double counting   =       307.71598152     -166.55366685
  entropy T*S    EENTRO =         0.00000000
  eigenvalues    EBANDS =        37.81793343
  atomic energy  EATOM  =       826.37398168
  ---------------------------------------------------
  free energy    TOTEN  =       -33.22471264 eV

  energy without entropy =      -33.22471264  energy(sigma->0) =      -33.22471264


--------------------------------------------------------------------------------------------------------




 average (electrostatic) potential at core
  the test charge radii are     0.9892
  (the norm of the test charge is              1.0000)
       1 -83.2351       2 -83.2340       3 -83.2359       4 -83.2389       5 -83.2337
       6 -83.2332       7 -83.2321       8 -83.2306
 
 
 
 E-fermi :   6.0510     XC(G=0):  -9.1363     alpha+bet :-11.7379


 k-point   1 :       0.0000    0.0000    0.0000
  band No.  band energies     occupation 
      1      -5.9520      2.00000
      2      -1.8819      2.00000
      3      -1.8710      2.00000
      4      -1.8685      2.00000
      5      -1.8655      2.00000
      6      -1.8594      2.00000
      7      -1.8521      2.00000
      8       3.0427      2.00000
      9       3.0467      2.00000
     10       3.0490      2.00000
     11       3.0499      2.00000
     12       3.0529      2.00000
     13       3.0564      2.00000
     14       5.9146      2.00000
     15       5.9202      2.00000
     16       5.9270      2.00000
     17       6.5806      0.00000
     18       6.5858      0.00000
     19       6.5882      0.00000
     20       6.5913      0.00000
     21       6.5968      0.00000
     22       6.6026      0.00000
     23       8.3752      0.00000
     24       8.3792      0.00000
     25       8.3826      0.00000
     26       9.0526      0.00000
     27      13.6116      0.00000
     28      13.6117      0.00000
     29      13.8104      0.00000
     30      15.8161      0.00000
     31      15.8237      0.00000
     32      15.8256      0.00000
     33      15.8280      0.00000
     34      15.8293      0.00000
     35      15.8376      0.00000
     36      16.9454      0.00000
     37      16.9486      0.00000
     38      16.9523      0.00000
     39      16.9693      0.00000
     40      16.9770      0.00000
     41      16.9820      0.00000
     42      16.9859      0.00000
     43      16.9935      0.00000
     44      16.9999      0.00000
     45      18.7043      0.00000
     46      18.7152      0.00000
     47      18.7233      0.00000
     48      18.7329      0.00000


--------------------------------------------------------------------------------------------------------


 soft charge-density along one line, spin component           1
         0         1         2         3         4         5         6         7         8         9
 total charge-density along one line
 
 pseudopotential strength for first ion, spin component:           1
 18.598  -0.001   0.000   0.000   0.000   0.000   0.000   0.000
 -0.001   0.006   0.000   0.000   0.000   0.000   0.000   0.000
  0.000   0.000   4.224   0.000   0.000  -0.005   0.000   0.000
  0.000   0.000   0.000   4.224   0.000   0.000  -0.005   0.000
  0.000   0.000   0.000   0.000   4.224   0.000   0.000  -0.005
  0.000   0.000  -0.005   0.000   0.000   0.005   0.000   0.000
  0.000   0.000   0.000  -0.005   0.000   0.000   0.005   0.000
  0.000   0.000   0.000   0.000  -0.005   0.000   0.000   0.005
 total augmentation occupancy for first ion, spin component:           1
  1.320  -1.087  -0.001   0.003  -0.002   0.002  -0.002   0.003
 -1.087   1.013   0.000   0.000   0.000  -0.002   0.002  -0.002
 -0.001   0.000   1.123  -0.001   0.002  -0.801   0.002  -0.002
  0.003   0.000  -0.001   1.122  -0.001   0.002  -0.800   0.001
 -0.002   0.000   0.002  -0.001   1.124  -0.002   0.001  -0.802
  0.002  -0.002  -0.801   0.002  -0.002   0.647  -0.002   0.002
 -0.002   0.002   0.002  -0.800   0.001  -0.002   0.647  -0.001
  0.003  -0.002  -0.002   0.001  -0.802   0.002  -0.001   0.648


----------------------------------------- Iteration    1(  10)  ---------------------------------------


    POTLOK:  cpu time    0.03: real time    0.03
    SETDIJ:  cpu time    0.02: real time    0.02
    EDDIAG:  cpu time    0.02: real time    0.02
  RMM-DIIS:  cpu time    0.04: real time    0.04
    ORTHCH:  cpu time    0.01: real time    0.01
       DOS:  cpu time    0.00: real time    0.00
    CHARGE:  cpu time    0.02: real time    0.02
    MIXING:  cpu time    0.00: real time    0.00
    --------------------------------------------
      LOOP:  cpu time    0.14: real time    0.15

 eigenvalue-minimisations  :   104
 total energy-change (2. order) :-0.1856697E-03  (-0.2305857E-04)
 number of electron      31.9999999 magnetization 
 augmentation part       -1.7273548 magnetization 

 Broyden mixing:
  rms(total) = 0.41514E-03    rms(broyden)= 0.41467E-03
  rms(prec ) = 0.85992E-03
  weight for this iteration     100.00

 eigenvalues of (default mixing * dielectric matrix)
  average eigenvalue GAMMA=   2.0383
  3.0830  2.6182  2.1565  0.9795  1.3545

 Free energy of the ion-electron system (eV)
  ---------------------------------------------------
  alpha Z        PSCENC =        12.68944982
  Ewald energy   TEWEN  =      -907.56629383
  -1/2 Hartree   DENC   =       -70.84577243
  -exchange  EXHF       =         0.00000000
  -V(xc)+E(xc)   XCENC  =       -72.90951071
  PAW double counting   =       307.79882039     -166.64242503
  entropy T*S    EENTRO =         0.00000000
  eigenvalues    EBANDS =        37.87685180
  atomic energy  EATOM  =       826.37398168
  ---------------------------------------------------
  free energy    TOTEN  =       -33.22489831 eV

  energy without entropy =      -33.22489831  energy(sigma->0) =      -33.22489831


--------------------------------------------------------------------------------------------------------




 average (electrostatic) potential at core
  the test charge radii are     0.9892
  (the norm of the test charge is              1.0000)
       1 -83.2266       2 -83.2258       3 -83.2272       4 -83.2295       5 -83.2256
       6 -83.2252       7 -83.2244       8 -83.2233
 
 
 
 E-fermi :   6.0554     XC(G=0):  -9.1309     alpha+bet :-11.7379


 k-point   1 :       0.0000    0.0000    0.0000
  band No.  band energies     occupation 
      1      -5.9496      2.00000
      2      -1.8796      2.00000
      3      -1.8690      2.00000
      4      -1.8666      2.00000
      5      -1.8636      2.00000
      6      -1.8577      2.00000
      7      -1.8504      2.00000
      8       3.0444      2.00000
      9       3.0484      2.00000
     10       3.0506      2.00000
     11       3.0515      2.00000
     12       3.0544      2.00000
     13       3.0578      2.00000
     14       5.9166      2.00000
     15       5.9222      2.00000
     16       5.9291      2.00000
     17       6.5857      0.00000
     18       6.5909      0.00000
     19       6.5934      0.00000
     20       6.5965      0.00000
     21       6.6020      0.00000
     22       6.6078      0.00000
     23       8.3761      0.00000
     24       8.3801      0.00000
     25       8.3835      0.00000
     26       9.0561      0.00000
     27      13.6116      0.00000
     28      13.6117      0.00000
     29      13.8259      0.00000
     30      15.8178      0.00000
     31      15.8253      0.00000
     32      15.8274      0.00000
     33      15.8297      0.00000
     34      15.8312      0.00000
     35      15.8393      0.00000
     36      16.9492      0.00000
     37      16.9524      0.00000
     38      16.9561      0.00000
     39      16.9721      0.00000
     40      16.9796      0.00000
     41      16.9846      0.00000
     42      16.9885      0.00000
     43      16.9961      0.00000
     44      17.0024      0.00000
     45      18.7114      0.00000
     46      18.7222      0.00000
     47      18.7303      0.00000
     48      18.7394      0.00000


--------------------------------------------------------------------------------------------------------


 soft charge-density along one line, spin component           1
         0         1         2         3         4         5         6         7         8         9
 total charge-density along one line
 
 pseudopotential strength for first ion, spin component:           1
 18.597  -0.001   0.000   0.000   0.000   0.000   0.000   0.000
 -0.001   0.006   0.000   0.000   0.000   0.000   0.000   0.000
  0.000   0.000   4.224   0.000   0.000  -0.005   0.000   0.000
  0.000   0.000   0.000   4.224   0.000   0.000  -0.005   0.000
  0.000   0.000   0.000   0.000   4.224   0.000   0.000  -0.005
  0.000   0.000  -0.005   0.000   0.000   0.005   0.000   0.000
  0.000   0.000   0.000  -0.005   0.000   0.000   0.005   0.000
  0.000   0.000   0.000   0.000  -0.005   0.000   0.000   0.005
 total augmentation occupancy for first ion, spin component:           1
  1.320  -1.087  -0.001   0.003  -0.002   0.002  -0.002   0.003
 -1.087   1.013   0.000   0.000   0.000  -0.002   0.002  -0.002
 -0.001   0.000   1.123  -0.002   0.002  -0.801   0.002  -0.002
  0.003   0.000  -0.002   1.121  -0.001   0.002  -0.800   0.001
 -0.002   0.000   0.002  -0.001   1.124  -0.002   0.001  -0.802
  0.002  -0.002  -0.801   0.002  -0.002   0.648  -0.002   0.002
 -0.002   0.002   0.002  -0.800   0.001  -0.002   0.647  -0.001
  0.003  -0.002  -0.002   0.001  -0.802   0.002  -0.001   0.649


----------------------------------------- Iteration    1(  11)  ---------------------------------------


    POTLOK:  cpu time    0.02: real time    0.02
    SETDIJ:  cpu time    0.02: real time    0.02
    EDDIAG:  cpu time    0.02: real time    0.02
  RMM-DIIS:  cpu time    0.03: real time    0.04
    ORTHCH:  cpu time    0.00: real time    0.01
       DOS:  cpu time    0.00: real time    0.00
    CHARGE:  cpu time    0.02: real time    0.02
    MIXING:  cpu time    0.00: real time    0.00
    --------------------------------------------
      LOOP:  cpu time    0.13: real time    0.13

 eigenvalue-minimisations  :   118
 total energy-change (2. order) : 0.4451901E-05  (-0.2812293E-06)
 number of electron      31.9999999 magnetization 
 augmentation part       -1.7274465 magnetization 

 Broyden mixing:
  rms(total) = 0.16902E-03    rms(broyden)= 0.16896E-03
  rms(prec ) = 0.33414E-03
  weight for this iteration     100.00

 eigenvalues of (default mixing * dielectric matrix)
  average eigenvalue GAMMA=   1.9566
  3.2020  2.6984  2.1705  1.7134  0.9777  0.9777

 Free energy of the ion-electron system (eV)
  ---------------------------------------------------
  alpha Z        PSCENC =        12.68944982
  Ewald energy   TEWEN  =      -907.56629383
  -1/2 Hartree   DENC   =       -70.82757822
  -exchange  EXHF       =         0.00000000
  -V(xc)+E(xc)   XCENC  =       -72.91096356
  PAW double counting   =       307.73202095     -166.57310097
  entropy T*S    EENTRO =         0.00000000
  eigenvalues    EBANDS =        37.85759028
  atomic energy  EATOM  =       826.37398168
  ---------------------------------------------------
  free energy    TOTEN  =       -33.22489385 eV

  energy without entropy =      -33.22489385  energy(sigma->0) =      -33.22489385


--------------------------------------------------------------------------------------------------------




 average (electrostatic) potential at core
  the test charge radii are     0.9892
  (the norm of the test charge is              1.0000)
       1 -83.2286       2 -83.2277       3 -83.2294       4 -83.2321       5 -83.2274
       6 -83.2270       7 -83.2259       8 -83.2246
 
 
 
 E-fermi :   6.0550     XC(G=0):  -9.1314     alpha+bet :-11.7379


 k-point   1 :       0.0000    0.0000    0.0000
  band No.  band energies     occupation 
      1      -5.9502      2.00000
      2      -1.8805      2.00000
      3      -1.8697      2.00000
      4      -1.8672      2.00000
      5      -1.8642      2.00000
      6      -1.8582      2.00000
      7      -1.8508      2.00000
      8       3.0438      2.00000
      9       3.0478      2.00000
     10       3.0500      2.00000
     11       3.0509      2.00000
     12       3.0539      2.00000
     13       3.0574      2.00000
     14       5.9159      2.00000
     15       5.9215      2.00000
     16       5.9284      2.00000
     17       6.5852      0.00000
     18       6.5904      0.00000
     19       6.5928      0.00000
     20       6.5959      0.00000
     21       6.6014      0.00000
     22       6.6072      0.00000
     23       8.3756      0.00000
     24       8.3797      0.00000
     25       8.3831      0.00000
     26       9.0552      0.00000
     27      13.6114      0.00000
     28      13.6114      0.00000
     29      13.8248      0.00000
     30      15.8172      0.00000
     31      15.8247      0.00000
     32      15.8267      0.00000
     33      15.8291      0.00000
     34      15.8305      0.00000
     35      15.8387      0.00000
     36      16.9489      0.00000
     37      16.9520      0.00000
     38      16.9557      0.00000
     39      16.9715      0.00000
     40      16.9790      0.00000
     41      16.9840      0.00000
     42      16.9879      0.00000
     43      16.9956      0.00000
     44      17.0019      0.00000
     45      18.7124      0.00000
     46      18.7230      0.00000
     47      18.7309      0.00000
     48      18.7391      0.00000


--------------------------------------------------------------------------------------------------------


 soft charge-density along one line, spin component           1
         0         1         2         3         4         5         6         7         8         9
 total charge-density along one line
 
 pseudopotential strength for first ion, spin component:           1
 18.597  -0.001   0.000   0.000   0.000   0.000   0.000   0.000
 -0.001   0.006   0.000   0.000   0.000   0.000   0.000   0.000
  0.000   0.000   4.224   0.000   0.000  -0.005   0.000   0.000
  0.000   0.000   0.000   4.224   0.000   0.000  -0.005   0.000
  0.000   0.000   0.000   0.000   4.224   0.000   0.000  -0.005
  0.000   0.000  -0.005   0.000   0.000   0.005   0.000   0.000
  0.000   0.000   0.000  -0.005   0.000   0.000   0.005   0.000
  0.000   0.000   0.000   0.000  -0.005   0.000   0.000   0.005
 total augmentation occupancy for first ion, spin component:           1
  1.320  -1.087  -0.001   0.003  -0.002   0.002  -0.002   0.003
 -1.087   1.012   0.000   0.000   0.000  -0.002   0.002  -0.002
 -0.001   0.000   1.123  -0.002   0.002  -0.801   0.002  -0.002
  0.003   0.000  -0.002   1.121  -0.001   0.002  -0.800   0.001
 -0.002   0.000   0.002  -0.001   1.124  -0.002   0.001  -0.802
  0.002  -0.002  -0.801   0.002  -0.002   0.648  -0.002   0.002
 -0.002   0.002   0.002  -0.800   0.001  -0.002   0.647  -0.001
  0.003  -0.002  -0.002   0.001  -0.802   0.002  -0.001   0.649


----------------------------------------- Iteration    1(  12)  ---------------------------------------


    POTLOK:  cpu time    0.02: real time    0.02
    SETDIJ:  cpu time    0.02: real time    0.02
    EDDIAG:  cpu time    0.02: real time    0.02
  RMM-DIIS:  cpu time    0.03: real time    0.03
    ORTHCH:  cpu time    0.01: real time    0.01
       DOS:  cpu time    0.00: real time    0.00
    CHARGE:  cpu time    0.02: real time    0.02
    MIXING:  cpu time    0.00: real time    0.00
    --------------------------------------------
      LOOP:  cpu time    0.13: real time    0.13

 eigenvalue-minimisations  :   125
 total energy-change (2. order) :-0.8069703E-06  (-0.6460801E-07)
 number of electron      31.9999999 magnetization 
 augmentation part       -1.7274319 magnetization 

 Broyden mixing:
  rms(total) = 0.59824E-04    rms(broyden)= 0.59785E-04
  rms(prec ) = 0.85046E-04
  weight for this iteration     100.00

 eigenvalues of (default mixing * dielectric matrix)
  average eigenvalue GAMMA=   2.0037
  3.2201  2.7406  2.4628  2.0638  1.5783  0.9984  0.9621

 Free energy of the ion-electron system (eV)
  ---------------------------------------------------
  alpha Z        PSCENC =        12.68944982
  Ewald energy   TEWEN  =      -907.56629383
  -1/2 Hartree   DENC   =       -70.83234813
  -exchange  EXHF       =         0.00000000
  -V(xc)+E(xc)   XCENC  =       -72.91087766
  PAW double counting   =       307.74125366     -166.58260562
  entropy T*S    EENTRO =         0.00000000
  eigenvalues    EBANDS =        37.86254542
  atomic energy  EATOM  =       826.37398168
  ---------------------------------------------------
  free energy    TOTEN  =       -33.22489466 eV

  energy without entropy =      -33.22489466  energy(sigma->0) =      -33.22489466


--------------------------------------------------------------------------------------------------------




 average (electrostatic) potential at core
  the test charge radii are     0.9892
  (the norm of the test charge is              1.0000)
       1 -83.2281       2 -83.2272       3 -83.2289       4 -83.2317       5 -83.2269
       6 -83.2264       7 -83.2253       8 -83.2240
 
 
 
 E-fermi :   6.0553     XC(G=0):  -9.1311     alpha+bet :-11.7379


 k-point   1 :       0.0000    0.0000    0.0000
  band No.  band energies     occupation 
      1      -5.9500      2.00000
      2      -1.8804      2.00000
      3      -1.8696      2.00000
      4      -1.8671      2.00000
      5      -1.8640      2.00000
      6      -1.8580      2.00000
      7      -1.8506      2.00000
      8       3.0439      2.00000
      9       3.0479      2.00000
     10       3.0502      2.00000
     11       3.0511      2.00000
     12       3.0541      2.00000
[...]
    MIXING:  cpu time    0.00: real time    0.00
    --------------------------------------------
      LOOP:  cpu time    0.16: real time    0.16

 Broyden mixing:
  rms(total) = 0.65579E-02    rms(broyden)= 0.65577E-02
  rms(prec ) = 0.11260E-01
  weight for this iteration     100.00

 eigenvalues of (default mixing * dielectric matrix)
  average eigenvalue GAMMA=   2.0523
  3.0104  2.4594  1.0884  1.6511

 Free energy of the ion-electron system (eV)
  ---------------------------------------------------
  -1/2 Hartree   DENC   =        -4.61321943
  -V(xc)+E(xc)   XCENC  =         0.94978121
  PAW double counting   =         3.09524645       -3.14452182
  entropy T*S    EENTRO =         0.00000000
  eigenvalues    EBANDS =       -24.52762254
  ---------------------------------------------------
  free energy    TOTEN  =       -28.24033614 eV

  energy without entropy =      -28.24033614


----------------------------------------- Iteration    3(   7)  ---------------------------------------


   POT+DIJ:  cpu time    0.08: real time    0.08
    HAMIL1:  cpu time    0.01: real time    0.01
    LRDIAG:  cpu time    0.01: real time    0.01
    LRDIIS:  cpu time    0.02: real time    0.02
    LRDIAG:  cpu time    0.01: real time    0.01
    MIXING:  cpu time    0.00: real time    0.00
    --------------------------------------------
      LOOP:  cpu time    0.15: real time    0.16

 Broyden mixing:
  rms(total) = 0.52908E-03    rms(broyden)= 0.52812E-03
  rms(prec ) = 0.97525E-03
  weight for this iteration     100.00

 eigenvalues of (default mixing * dielectric matrix)
  average eigenvalue GAMMA=   1.9118
  3.0836  2.4397  1.6606  1.0940  1.2810

 Free energy of the ion-electron system (eV)
  ---------------------------------------------------
  -1/2 Hartree   DENC   =        -4.62691617
  -V(xc)+E(xc)   XCENC  =         0.95758746
  PAW double counting   =         3.06485886       -3.11368407
  entropy T*S    EENTRO =         0.00000000
  eigenvalues    EBANDS =       -24.56117095
  ---------------------------------------------------
  free energy    TOTEN  =       -28.27932487 eV

  energy without entropy =      -28.27932487


----------------------------------------- Iteration    3(   8)  ---------------------------------------


   POT+DIJ:  cpu time    0.08: real time    0.08
    HAMIL1:  cpu time    0.00: real time    0.01
    LRDIAG:  cpu time    0.01: real time    0.01
    LRDIIS:  cpu time    0.02: real time    0.02
    LRDIAG:  cpu time    0.01: real time    0.01
    MIXING:  cpu time    0.00: real time    0.00
    --------------------------------------------
      LOOP:  cpu time    0.15: real time    0.16

 Broyden mixing:
  rms(total) = 0.28276E-03    rms(broyden)= 0.28267E-03
  rms(prec ) = 0.41161E-03
  weight for this iteration     100.00

 eigenvalues of (default mixing * dielectric matrix)
  average eigenvalue GAMMA=   1.9344
  3.0893  2.4519  2.2423  1.6641  1.1054  1.0531

 Free energy of the ion-electron system (eV)
  ---------------------------------------------------
  -1/2 Hartree   DENC   =        -4.62932373
  -V(xc)+E(xc)   XCENC  =         0.95830581
  PAW double counting   =         3.06775899       -3.11663399
  entropy T*S    EENTRO =         0.00000000
  eigenvalues    EBANDS =       -24.56257360
  ---------------------------------------------------
  free energy    TOTEN  =       -28.28246652 eV

  energy without entropy =      -28.28246652


----------------------------------------- Iteration    3(   9)  ---------------------------------------


   POT+DIJ:  cpu time    0.08: real time    0.08
    HAMIL1:  cpu time    0.00: real time    0.01
    LRDIAG:  cpu time    0.01: real time    0.01
    LRDIIS:  cpu time    0.02: real time    0.02
    LRDIAG:  cpu time    0.02: real time    0.02
    MIXING:  cpu time    0.00: real time    0.00
    --------------------------------------------
      LOOP:  cpu time    0.16: real time    0.17

 Broyden mixing:
  rms(total) = 0.84768E-04    rms(broyden)= 0.84742E-04
  rms(prec ) = 0.13306E-03
  weight for this iteration     100.00

 eigenvalues of (default mixing * dielectric matrix)
  average eigenvalue GAMMA=   1.8908
  3.1819  2.7501  2.4256  1.6689  1.2066  1.0890  0.9133

 Free energy of the ion-electron system (eV)
  ---------------------------------------------------
  -1/2 Hartree   DENC   =        -4.62907224
  -V(xc)+E(xc)   XCENC  =         0.95824944
  PAW double counting   =         3.07030992       -3.11922864
  entropy T*S    EENTRO =         0.00000000
  eigenvalues    EBANDS =       -24.56279748
  ---------------------------------------------------
  free energy    TOTEN  =       -28.28253900 eV

  energy without entropy =      -28.28253900


----------------------------------------- Iteration    3(  10)  ---------------------------------------


   POT+DIJ:  cpu time    0.08: real time    0.08
    HAMIL1:  cpu time    0.01: real time    0.01
    LRDIAG:  cpu time    0.01: real time    0.01
    LRDIIS:  cpu time    0.02: real time    0.02
    LRDIAG:  cpu time    0.01: real time    0.01
    MIXING:  cpu time    0.00: real time    0.00
    --------------------------------------------
      LOOP:  cpu time    0.15: real time    0.16

 Broyden mixing:
  rms(total) = 0.11599E-04    rms(broyden)= 0.11583E-04
  rms(prec ) = 0.20451E-04
  weight for this iteration     100.00

 eigenvalues of (default mixing * dielectric matrix)
  average eigenvalue GAMMA=   1.8438
  3.1975  2.7658  2.4422  1.6645  1.4952  0.9602  1.1394  1.0859

 Free energy of the ion-electron system (eV)
  ---------------------------------------------------
  -1/2 Hartree   DENC   =        -4.62916825
  -V(xc)+E(xc)   XCENC  =         0.95829141
  PAW double counting   =         3.07121071       -3.12014508
  entropy T*S    EENTRO =         0.00000000
  eigenvalues    EBANDS =       -24.56302044
  ---------------------------------------------------
  free energy    TOTEN  =       -28.28283165 eV

  energy without entropy =      -28.28283165


----------------------------------------- Iteration    3(  11)  ---------------------------------------


   POT+DIJ:  cpu time    0.08: real time    0.08
    HAMIL1:  cpu time    0.01: real time    0.01
    LRDIAG:  cpu time    0.01: real time    0.01
    LRDIIS:  cpu time    0.02: real time    0.02
    LRDIAG:  cpu time    0.01: real time    0.01
    MIXING:  cpu time    0.00: real time    0.00
    --------------------------------------------
      LOOP:  cpu time    0.15: real time    0.15

 Broyden mixing:
  rms(total) = 0.41240E-05    rms(broyden)= 0.41217E-05
  rms(prec ) = 0.63185E-05
  weight for this iteration     100.00

 eigenvalues of (default mixing * dielectric matrix)
  average eigenvalue GAMMA=   1.8666
  3.2005  2.7882  2.4291  2.2193  1.6663  1.3747  0.9700  1.1071  1.0442

 Free energy of the ion-electron system (eV)
  ---------------------------------------------------
  -1/2 Hartree   DENC   =        -4.62917927
  -V(xc)+E(xc)   XCENC  =         0.95829044
  PAW double counting   =         3.07121135       -3.12014570
  entropy T*S    EENTRO =         0.00000000
  eigenvalues    EBANDS =       -24.56300683
  ---------------------------------------------------
  free energy    TOTEN  =       -28.28283001 eV

  energy without entropy =      -28.28283001


----------------------------------------- Iteration    3(  12)  ---------------------------------------


   POT+DIJ:  cpu time    0.08: real time    0.08
    HAMIL1:  cpu time    0.00: real time    0.01
    LRDIAG:  cpu time    0.01: real time    0.01
    LRDIIS:  cpu time    0.02: real time    0.02
    LRDIAG:  cpu time    0.01: real time    0.01
    MIXING:  cpu time    0.00: real time    0.00
    --------------------------------------------
      LOOP:  cpu time    0.15: real time    0.15

 Broyden mixing:
  rms(total) = 0.11193E-05    rms(broyden)= 0.11188E-05
  rms(prec ) = 0.16557E-05
  weight for this iteration     100.00

 eigenvalues of (default mixing * dielectric matrix)
  average eigenvalue GAMMA=   1.8409
  3.2073  2.8106  2.4636  2.4004  1.6667  0.9841  1.0330  1.1066  1.3683  1.3683

 Free energy of the ion-electron system (eV)
  ---------------------------------------------------
  -1/2 Hartree   DENC   =        -4.62917970
  -V(xc)+E(xc)   XCENC  =         0.95829030
  PAW double counting   =         3.07113725       -3.12007037
  entropy T*S    EENTRO =         0.00000000
  eigenvalues    EBANDS =       -24.56300863
  ---------------------------------------------------
  free energy    TOTEN  =       -28.28283114 eV

  energy without entropy =      -28.28283114


----------------------------------------- Iteration    3(  13)  ---------------------------------------


   POT+DIJ:  cpu time    0.08: real time    0.08
    HAMIL1:  cpu time    0.00: real time    0.01
    LRDIAG:  cpu time    0.01: real time    0.01
    LRDIIS:  cpu time    0.02: real time    0.02
    LRDIAG:  cpu time    0.01: real time    0.01
    MIXING:  cpu time    0.00: real time    0.00
    --------------------------------------------
      LOOP:  cpu time    0.15: real time    0.16

 Broyden mixing:
  rms(total) = 0.34467E-06    rms(broyden)= 0.34458E-06
  rms(prec ) = 0.55899E-06
  weight for this iteration     100.00

 eigenvalues of (default mixing * dielectric matrix)
  average eigenvalue GAMMA=   1.8255
  3.2093  2.8134  2.6158  2.4343  1.8176  1.6634  1.3026  0.9877  0.9877  1.1039
  1.1449

 Free energy of the ion-electron system (eV)
  ---------------------------------------------------
  -1/2 Hartree   DENC   =        -4.62918077
  -V(xc)+E(xc)   XCENC  =         0.95829043
  PAW double counting   =         3.07111781       -3.12005058
  entropy T*S    EENTRO =         0.00000000
  eigenvalues    EBANDS =       -24.56300860
  ---------------------------------------------------
  free energy    TOTEN  =       -28.28283170 eV

  energy without entropy =      -28.28283170


------------------------ aborting loop because EDIFF is reached ----------------------------------------


 change of polarisation eV/A/(eV/A) component  3 :     0.094    -0.122    50.525
 dielectric tensor                  component  3 :     0.104    -0.135    56.862


--------------------------------------------------------------------------------------------------------


    FORLOC:  cpu time    0.00: real time    0.00
    FORNL :  cpu time    0.09: real time    0.09
    STRESS:  cpu time    0.29: real time    0.29
    FORCOR:  cpu time    0.02: real time    0.02
    FORLOC:  cpu time    0.00: real time    0.00
    FORNL :  cpu time    0.09: real time    0.09
    STRESS:  cpu time    0.28: real time    0.28
    FORCOR:  cpu time    0.02: real time    0.02
    FORNLD:  cpu time    0.01: real time    0.01

 PIEZOELECTRIC TENSOR FIELD DIRECTION 3  (e Angst)
 -----------------------------------------------------------------------------
     0.00609 -0.00160 -0.00207           ( -0.00001  0.00000 -0.00001)
    -0.00160 -0.00040 -0.00109           (  0.00000 -0.00001  0.00000)
    -0.00208 -0.00109  0.00682           ( -0.00001  0.00000  0.00000)

 PIEZOELECTRIC TENSOR FIELD DIRECTION 3  (C/m^2)
 -----------------------------------------------------------------------------
     0.00060 -0.00016 -0.00020
    -0.00016 -0.00004 -0.00011
    -0.00020 -0.00011  0.00067


      POSITION         DIRECTION 3           BORN EFFECTIVE CHARGE    (rigid.aug.   ionic)
 -----------------------------------------------------------------------------------------
      5.46796      0.00002      0.00055     0.05044 -0.16225 -5.74802 (  0.21594  4.00000)
      1.36752      1.36805      1.36743    -0.13860 -0.03055 -5.74878 (  0.21593  4.00000)
      2.73555      2.73493      0.00386    -0.03602 -0.10405 -5.73266 (  0.21594  4.00000)
      4.10243      4.10636      1.36503    -0.16953  0.01811 -5.67138 (  0.21597  4.00000)
      2.73886      5.46753      2.73423    -0.06345  0.11296 -5.79804 (  0.21593  4.00000)
      4.10003      1.36673      4.10242     0.13645 -0.01062 -5.82385 (  0.21592  4.00000)
      5.46923      2.73492      2.73152     0.02958  0.16898 -5.82455 (  0.21591  4.00000)
      1.36742      4.09902      4.10492     0.16807  0.03576 -5.86331 (  0.21590  4.00000)
 -----------------------------------------------------------------------------------------
    total drift (improves with k-points):  -0.02307  0.02835-46.21058




--------------------------------------------------------------------------------------------------------


  LATTYP: Found a simple cubic cell.
 ALAT       =     5.4700000000
  
  Lattice vectors:
  
 A1 = (   5.4700000000,   0.0000000000,   0.0000000000)
 A2 = (   0.0000000000,   5.4700000000,   0.0000000000)
 A3 = (   0.0000000000,   0.0000000000,   5.4700000000)


Analysis of symmetry for initial positions (statically):
=====================================================================
 Subroutine PRICEL returns:
 Original cell was already a primitive cell.
 

 Routine SETGRP: Setting up the symmetry group for a 
 simple cubic supercell.


 Subroutine GETGRP returns: Found  1 space group operations
 (whereof  1 operations were pure point group operations)
 out of a pool of 48 trial point group operations.


The static configuration has the point symmetry C_1 .


Analysis of symmetry for dynamics (positions and initial velocities):
=====================================================================
 Subroutine PRICEL returns:
 Original cell was already a primitive cell.
 

 Routine SETGRP: Setting up the symmetry group for a 
 simple cubic supercell.


 Subroutine GETGRP returns: Found  1 space group operations
 (whereof  1 operations were pure point group operations)
 out of a pool of 48 trial point group operations.


The dynamic configuration has the point symmetry C_1 .


 MACROSCOPIC STATIC DIELECTRIC TENSOR (including local field effects in DFT)
 ------------------------------------------------------
          56.877242    -0.020101     0.103758
          -0.020101    56.870135    -0.135341
           0.103758    -0.135341    56.861751
 ------------------------------------------------------



--------------------------------------------------------------------------------------------------------


  LATTYP: Found a simple cubic cell.
 ALAT       =     5.4700000000
  
  Lattice vectors:
  
 A1 = (   5.4700000000,   0.0000000000,   0.0000000000)
 A2 = (   0.0000000000,   5.4700000000,   0.0000000000)
 A3 = (   0.0000000000,   0.0000000000,   5.4700000000)


Analysis of symmetry for initial positions (statically):
=====================================================================
 Subroutine PRICEL returns:
 Original cell was already a primitive cell.
 

 Routine SETGRP: Setting up the symmetry group for a 
 simple cubic supercell.


 Subroutine GETGRP returns: Found  1 space group operations
 (whereof  1 operations were pure point group operations)
 out of a pool of 48 trial point group operations.


The static configuration has the point symmetry C_1 .


Analysis of symmetry for dynamics (positions and initial velocities):
=====================================================================
 Subroutine PRICEL returns:
 Original cell was already a primitive cell.
 

 Routine SETGRP: Setting up the symmetry group for a 
 simple cubic supercell.


 Subroutine GETGRP returns: Found  1 space group operations
 (whereof  1 operations were pure point group operations)
 out of a pool of 48 trial point group operations.


The dynamic configuration has the point symmetry C_1 .
 
 KPOINTS: Automatic mesh                          

Automatic generation of k-mesh.
Space group operators:
 irot       det(A)        alpha          n_x          n_y          n_z        tau_x        tau_y        tau_z
    1     1.000000     0.000001     1.000000     0.000000     0.000000     0.000000     0.000000     0.000000
 
 Subroutine IBZKPT returns following result:
 ===========================================
 
 Found      1 irreducible k-points:
 
 Following reciprocal coordinates:
            Coordinates               Weight
  0.000000  0.000000  0.000000      1.000000
 
 Following cartesian coordinates:
            Coordinates               Weight
  0.000000  0.000000  0.000000      1.000000
 


--------------------------------------------------------------------------------------------------------




 MACROSCOPIC STATIC DIELECTRIC TENSOR (including local field effects in DFT)
 ------------------------------------------------------
          56.877242    -0.020101     0.103758
          -0.020101    56.870135    -0.135341
           0.103758    -0.135341    56.861751
 ------------------------------------------------------


 PIEZOELECTRIC TENSOR  for field in x, y, z        (e  Angst)
          XX          YY          ZZ          XY          YZ          ZX
  --------------------------------------------------------------------------------
  x    -0.00840    -0.00292     0.00859     0.00994     0.00006     0.00320
  y     0.00328     0.00187    -0.02123    -0.00887     0.00067     0.00346
  z     0.00609    -0.00040     0.00682    -0.00160    -0.00109    -0.00207

 PIEZOELECTRIC TENSOR  for field in x, y, z        (C/m^2)
          XX          YY          ZZ          XY          YZ          ZX
  --------------------------------------------------------------------------------
  x    -0.00082    -0.00029     0.00084     0.00097     0.00001     0.00031
  y     0.00032     0.00018    -0.00208    -0.00087     0.00007     0.00034
  z     0.00060    -0.00004     0.00067    -0.00016    -0.00011    -0.00020
 
 BORN EFFECTIVE CHARGES (in e, cummulative output)
 -------------------------------------------------
 ion    1
    1    -5.76997    -0.05254    -0.00960
    2    -0.00215    -5.75809     0.23318
    3     0.05044    -0.16225    -5.74802
 ion    2
    1    -5.80572    -0.07360     0.21407
    2     0.04904    -5.78813     0.02287
    3    -0.13860    -0.03055    -5.74878
 ion    3
    1    -5.73659     0.05420     0.01582
    2     0.00207    -5.74871     0.17890
    3    -0.03602    -0.10405    -5.73266
 ion    4
    1    -5.68023     0.07703     0.16400
    2    -0.04328    -5.69902    -0.02455
    3    -0.16953     0.01811    -5.67138
 ion    5
    1    -5.78142     0.00116     0.00160
    2     0.03151    -5.78300    -0.17398
    3    -0.06345     0.11296    -5.79804
 ion    6
    1    -5.76653     0.00502    -0.22141
    2    -0.01181    -5.79783     0.03459
    3     0.13645    -0.01062    -5.82385
 ion    7
    1    -5.81731     0.00497    -0.01690
    2    -0.02578    -5.81331    -0.22866
    3     0.02958     0.16898    -5.82455
 ion    8
    1    -5.85523    -0.01193    -0.17057
    2     0.00473    -5.82299    -0.01395
    3     0.16807     0.03576    -5.86331


--------------------------------------------------------------------------------------------------------


     LOOP+:  cpu time   19.39: real time   19.78
    4ORBIT:  cpu time    0.00: real time    0.00

 total amount of memory used by VASP on root node    32224. kBytes
========================================================================

   base      :      30000. kBytes
   nonl-proj :        202. kBytes
   fftplans  :        782. kBytes
   grid      :       1198. kBytes
   one-center:         24. kBytes
   wavefun   :         18. kBytes
 
  
  
 General timing and accounting informations for this job:
 ========================================================
  
                  Total CPU time used (sec):       20.722
                            User time (sec):       16.346
                          System time (sec):        4.376
                         Elapsed time (sec):       22.755
  
                   Maximum memory used (kb):       66932.
                   Average memory used (kb):           0.
  
                          Minor page faults:       209783
                          Major page faults:            0
                 Voluntary context switches:         1528
