 vasp.5.3.3 18Dez12 (build Jan  9 2014 12:00:49) complex                        
  
 executed on             LinuxIFC date 2014.01.29  10:04:58
 running on   48 total cores
 distrk:  each k-point on   48 cores,    1 groups
 distr:  one band on NCORES_PER_BAND=   1 cores,   48 groups


--------------------------------------------------------------------------------------------------------


 INCAR:
 POTCAR:    PAW Si                                

 ----------------------------------------------------------------------------- 
|                                                                             |
|           W    W    AA    RRRRR   N    N  II  N    N   GGGG   !!!           |
|           W    W   A  A   R    R  NN   N  II  NN   N  G    G  !!!           |
|           W    W  A    A  R    R  N N  N  II  N N  N  G       !!!           |
|           W WW W  AAAAAA  RRRRR   N  N N  II  N  N N  G  GGG   !            |
|           WW  WW  A    A  R   R   N   NN  II  N   NN  G    G                |
|           W    W  A    A  R    R  N    N  II  N    N   GGGG   !!!           |
|                                                                             |
|      For optimal performance we recommend that you set                      |
|        NPAR = 4 - approx SQRT( number of cores)                             |
|      (number of cores/NPAR must be integer)                                 |
|      This setting will greatly improve the performance of VASP for DFT.     |
|      The default NPAR=number of cores might be grossly inefficient          |
|      on modern multi-core architectures or massively parallel machines.     |
|      Do your own testing.                                                   |
|      Unfortunately you need to use the default for hybrid, GW and RPA       |
|      calculations.                                                          |
|                                                                             |
 ----------------------------------------------------------------------------- 

 POTCAR:    PAW Si                                
   VRHFIN =Si: s2p2                                                             
   LEXCH  = 91                                                                  
   EATOM  =   103.3076 eV,    7.5929 Ry                                         
                                                                                
   TITEL  = PAW Si                                                              
   LULTRA =        F    use ultrasoft PP ?                                      
   IUNSCR =        1    unscreen: 0-lin 1-nonlin 2-no                           
   RPACOR =    1.500    partial core radius                                     
   POMASS =   28.085; ZVAL   =    4.000    mass and valenz                      
   RCORE  =    1.900    outmost cutoff radius                                   
   RWIGS  =    2.480; RWIGS  =    1.312    wigner-seitz radius (au A)           
   ENMAX  =  245.435; ENMIN  =  184.076 eV                                      
   ICORE  =        2    local potential                                         
   LCOR   =        T    correct aug charges                                     
   LPAW   =        T    paw PP                                                  
   EAUG   =  322.069                                                            
   DEXC   =    -.001                                                            
   RMAX   =    2.943    core radius for proj-oper                               
   RAUG   =    1.300    factor for augmentation sphere                          
   RDEP   =    1.993    core radius for depl-charge                             
   QCUT   =   -4.247; QGAM   =    8.494    optimization parameters              
                                                                                
   Description                                                                  
     l     E      TYP  RCUT    TYP  RCUT                                        
     0   .000     23  1.900                                                     
     0   .000     23  1.900                                                     
     1   .000     23  1.900                                                     
     1   .000     23  1.900                                                     
     2   .000      7  1.900                                                     
  local pseudopotential read in
  partial core-charges read in
  atomic valenz-charges read in
  non local Contribution for L=           0  read in
    real space projection operators read in
  non local Contribution for L=           0  read in
    real space projection operators read in
  non local Contribution for L=           1  read in
    real space projection operators read in
  non local Contribution for L=           1  read in
    real space projection operators read in
    PAW grid and wavefunctions read in
 
   number of l-projection  operators is LMAX  =           4
   number of lm-projection operators is LMMAX =           8
 
  PAW Si                                :
 energy of atom  1       EATOM= -103.3076
 kinetic energy error for atom=    0.0109 (will be added to EATOM!!)
 
 
 POSCAR: OUTCAR.0013.+1.out 1.0e-02              
  positions in cartesian coordinates
  No initial velocities read in
 exchange correlation table for  LEXCH =        7
   RHO(1)=    0.500       N(1)  =     2000
   RHO(2)=  100.500       N(2)  =     4000

 VTST: version 3.0c, (01/09/14)

 CHAIN: initializing optimizer
 
 OPT: Using VASP Dynamics algorithm
 CHAIN: Read ICHAIN            0
 
 POSCAR: OUTCAR.0013.+1.out 1.0e-02              
  positions in cartesian coordinates
  No initial velocities read in
 


--------------------------------------------------------------------------------------------------------


 ion  position               nearest neighbor table
   1  0.000  1.000  1.000-   8 2.37   2 2.37   6 2.37   4 2.37
   2  0.250  0.250  0.250-   5 2.37   1 2.37   7 2.37   3 2.37
   3  0.500  0.500  0.999-   6 2.37   8 2.37   4 2.37   2 2.37
   4  0.750  0.749  0.250-   7 2.37   3 2.37   5 2.37   1 2.37
   5  0.499  0.000  0.500-   8 2.36   2 2.37   6 2.37   4 2.37
   6  0.750  0.250  0.750-   7 2.37   3 2.37   1 2.37   5 2.37
   7  0.000  0.500  0.501-   6 2.37   8 2.37   4 2.37   2 2.37
   8  0.250  0.751  0.750-   5 2.36   1 2.37   7 2.37   3 2.37
 
  LATTYP: Found a simple cubic cell.
 ALAT       =     5.4700000000
  
  Lattice vectors:
  
 A1 = (   5.4700000000,   0.0000000000,   0.0000000000)
 A2 = (   0.0000000000,   5.4700000000,   0.0000000000)
 A3 = (   0.0000000000,   0.0000000000,   5.4700000000)


Analysis of symmetry for initial positions (statically):
=====================================================================
 Subroutine PRICEL returns:
 Original cell was already a primitive cell.
 

 Routine SETGRP: Setting up the symmetry group for a 
 simple cubic supercell.


 Subroutine GETGRP returns: Found  1 space group operations
 (whereof  1 operations were pure point group operations)
 out of a pool of 48 trial point group operations.


The static configuration has the point symmetry C_1 .


Analysis of symmetry for dynamics (positions and initial velocities):
=====================================================================
 Subroutine PRICEL returns:
 Original cell was already a primitive cell.
 

 Routine SETGRP: Setting up the symmetry group for a 
 simple cubic supercell.


 Subroutine GETGRP returns: Found  1 space group operations
 (whereof  1 operations were pure point group operations)
 out of a pool of 48 trial point group operations.


The dynamic configuration has the point symmetry C_1 .


 irot  :   1
 --------------------------------------------------------------------
 isymop:   1   0   0
           0   1   0
           0   0   1

 gtrans:     0.0000000     0.0000000     0.0000000

 ptrans:     0.0000000     0.0000000     0.0000000
 rotmap:
 (   1->   1)  (   2->   2)  (   3->   3)  (   4->   4)  (   5->   5) 
 (   6->   6)  (   7->   7)  (   8->   8) 
 
 
 KPOINTS: Automatic mesh                          

Automatic generation of k-mesh.
Space group operators:
 irot       det(A)        alpha          n_x          n_y          n_z        tau_x        tau_y        tau_z
    1     1.000000     0.000001     1.000000     0.000000     0.000000     0.000000     0.000000     0.000000
 
 Subroutine IBZKPT returns following result:
 ===========================================
 
 Found      1 irreducible k-points:
 
 Following reciprocal coordinates:
            Coordinates               Weight
  0.000000  0.000000  0.000000      1.000000
 
 Following cartesian coordinates:
            Coordinates               Weight
  0.000000  0.000000  0.000000      1.000000
 
 
 Subroutine IBZKPT_HF returns following result:
 ==============================================
 
 Found      1 k-points in 1st BZ
 the following      1 k-points will be used (e.g. in the exchange kernel)
 Following reciprocal coordinates:   # in IRBZ
  0.000000  0.000000  0.000000       1 t-inv F


--------------------------------------------------------------------------------------------------------




 Dimension of arrays:
   k-points           NKPTS =      1   k-points in BZ     NKDIM =      1   number of bands    NBANDS=     48
   number of dos      NEDOS =    301   number of ions     NIONS =      8
   non local maximal  LDIM  =      4   non local SUM 2l+1 LMDIM =      8
   total plane-waves  NPLWV =  21952
   max r-space proj   IRMAX =      1   max aug-charges    IRDMAX=  36071
   dimension x,y,z NGX =    28 NGY =   28 NGZ =   28
   dimension x,y,z NGXF=    56 NGYF=   56 NGZF=   56
   support grid    NGXF=   112 NGYF=  112 NGZF=  112
   ions per type =               8
 NGX,Y,Z   is equivalent  to a cutoff of   8.51,  8.51,  8.51 a.u.
 NGXF,Y,Z  is equivalent  to a cutoff of  17.02, 17.02, 17.02 a.u.


 I would recommend the setting:
   dimension x,y,z NGX =    19 NGY =   19 NGZ =   19
 SYSTEM =  NAPTHA04                                
 POSCAR =  OUTCAR.0013.+1.out 1.0e-02              

 Startparameter for this run:
   NWRITE =      3    write-flag & timer
   PREC   = normal    normal or accurate (medium, high low for compatibility)
   ISTART =      0    job   : 0-new  1-cont  2-samecut
   ICHARG =      2    charge: 1-file 2-atom 10-const
   ISPIN  =      1    spin polarized calculation?
   LNONCOLLINEAR =      F non collinear calculations
   LSORBIT =      F    spin-orbit coupling
   INIWAV =      1    electr: 0-lowe 1-rand  2-diag
   LASPH  =      F    aspherical Exc in radial PAW
   METAGGA=      F    non-selfconsistent MetaGGA calc.

 Electronic Relaxation 1
   ENCUT  =  200.0 eV  14.70 Ry    3.83 a.u.   6.31  6.31  6.31*2*pi/ulx,y,z
   ENINI  =  200.0     initial cutoff
   ENAUG  =  322.1 eV  augmentation charge cutoff
   NELM   =     60;   NELMIN=  2; NELMDL= -5     # of ELM steps 
   EDIFF  = 0.1E-07   stopping-criterion for ELM
   LREAL  =      F    real-space projection
   NLSPLINE    = F    spline interpolate recip. space projectors
   LCOMPAT=      F    compatible to vasp.4.4
   GGA_COMPAT  = T    GGA compatible to vasp.4.4-vasp.4.6
   LMAXPAW     = -100 max onsite density
   LMAXMIX     =    2 max onsite mixed and CHGCAR
   VOSKOWN=      0    Vosko Wilk Nusair interpolation
   ROPT   =    0.00000
 Ionic relaxation
   EDIFFG = 0.1E-06   stopping-criterion for IOM
   NSW    =      0    number of steps for IOM
   NBLOCK =      1;   KBLOCK =      1    inner block; outer block 
   IBRION =     -1    ionic relax: 0-MD 1-quasi-New 2-CG
   NFREE  =      0    steps in history (QN), initial steepest desc. (CG)
   ISIF   =      2    stress and relaxation
   IWAVPR =     10    prediction:  0-non 1-charg 2-wave 3-comb
   ISYM   =      2    0-nonsym 1-usesym 2-fastsym
   LCORR  =      T    Harris-Foulkes like correction to forces

   POTIM  = 0.5000    time-step for ionic-motion
   TEIN   =    0.0    initial temperature
   TEBEG  =    0.0;   TEEND  =   0.0 temperature during run
   SMASS  =  -3.00    Nose mass-parameter (am)
   estimated Nose-frequenzy (Omega)   =  0.10E-29 period in steps =****** mass=  -0.684E-27a.u.
   SCALEE = 1.0000    scale energy and forces
   NPACO  =    256;   APACO  = 16.0  distance and # of slots for P.C.
   PSTRESS=    0.0 pullay stress

  Mass of Ions in am
   POMASS =  28.09
  Ionic Valenz
   ZVAL   =   4.00
  Atomic Wigner-Seitz radii
   RWIGS  =  -1.00
  virtual crystal weights 
   VCA    =   1.00
   NELECT =      32.0000    total number of electrons
   NUPDOWN=      -1.0000    fix difference up-down

 DOS related values:
   EMIN   =  10.00;   EMAX   =-10.00  energy-range for DOS
   EFERMI =   0.00
   ISMEAR =     0;   SIGMA  =   0.02  broadening in eV -4-tet -1-fermi 0-gaus

 Electronic relaxation 2 (details)
   IALGO  =     68    algorithm
   LDIAG  =      T    sub-space diagonalisation (order eigenvalues)
   LSUBROT=      T    optimize rotation matrix (better conditioning)
   TURBO    =      0    0=normal 1=particle mesh
   IRESTART =      0    0=no restart 2=restart with 2 vectors
   NREBOOT  =      0    no. of reboots
   NMIN     =      0    reboot dimension
   EREF     =   0.00    reference energy to select bands
   IMIX   =      4    mixing-type and parameters
     AMIX     =   0.40;   BMIX     =  1.00
     AMIX_MAG =   1.60;   BMIX_MAG =  1.00
     AMIN     =   0.10
     WC   =   100.;   INIMIX=   1;  MIXPRE=   1;  MAXMIX= -45

 Intra band minimization:
   WEIMIN = 0.0000     energy-eigenvalue tresh-hold
   EBREAK =  0.52E-10  absolut break condition
   DEPER  =   0.30     relativ break condition  

   TIME   =   0.40     timestep for ELM

  volume/ion in A,a.u.               =      20.46       138.06
  Fermi-wavevector in a.u.,A,eV,Ry     =   0.950176  1.795573 12.283814  0.902835
  Thomas-Fermi vector in A             =   2.078528
 
 Write flags
   LWAVE  =      F    write WAVECAR
   LCHARG =      F    write CHGCAR
   LVTOT  =      F    write LOCPOT, total local potential
   LVHAR  =      F    write LOCPOT, Hartree potential only
   LELF   =      F    write electronic localiz. function (ELF)
   LORBIT =      0    0 simple, 1 ext, 2 COOP (PROOUT)


 Dipole corrections
   LMONO  =      F    monopole corrections only (constant potential shift)
   LDIPOL =      F    correct potential (dipole corrections)
   IDIPOL =      0    1-x, 2-y, 3-z, 4-all directions 
   EPSILON=  1.0000000 bulk dielectric constant

 Exchange correlation treatment:
   GGA     =    --    GGA type
   LEXCH   =     7    internal setting for exchange type
   VOSKOWN=      0    Vosko Wilk Nusair interpolation
   LHFCALC =     F    Hartree Fock is set to
   LHFONE  =     F    Hartree Fock one center treatment
   AEXX    =    0.0000 exact exchange contribution

 Linear response parameters
   LEPSILON=     T    determine dielectric tensor
   LRPA    =     F    only Hartree local field effects (RPA)
   LNABLA  =     F    use nabla operator in PAW spheres
   LVEL    =     F    velocity operator in full k-point grid
   LINTERFAST=   F  fast interpolation
   KINTER  =     0    interpolate to denser k-point grid
   CSHIFT  =0.1000    complex shift for real part using Kramers Kronig
   OMEGAMAX=  -1.0    maximum frequency
   DEG_THRESHOLD= 0.2000000E-02 threshold for treating states as degnerate
   RTIME   =    0.100 relaxation time in fs

 Orbital magnetization related:
   ORBITALMAG=     F  switch on orbital magnetization
   LCHIMAG   =     F  perturbation theory with respect to B field
   DQ        =  0.001000  dq finite difference perturbation B field



--------------------------------------------------------------------------------------------------------


 Static calculation
 charge density and potential will be updated during run
 non-spin polarized calculation
 RMM-DIIS sequential band-by-band and
  variant of blocked Davidson during initial phase
 perform sub-space diagonalisation
    before iterative eigenvector-optimisation
 modified Broyden-mixing scheme, WC =      100.0
 initial mixing is a Kerker type mixing with AMIX =  0.4000 and BMIX =      1.0000
 Hartree-type preconditioning will be used
 using additional bands           32
 reciprocal scheme for non local part
 use partial core corrections
 calculate Harris-corrections to forces 
   (improved forces if not selfconsistent)
 use gradient corrections 
 use of overlap-Matrix (Vanderbilt PP)
 Gauss-broadening in eV      SIGMA  =   0.02


--------------------------------------------------------------------------------------------------------


  energy-cutoff  :      200.00
  volume of cell :      163.67
      direct lattice vectors                 reciprocal lattice vectors
     5.470000000  0.000000000  0.000000000     0.182815356  0.000000000  0.000000000
     0.000000000  5.470000000  0.000000000     0.000000000  0.182815356  0.000000000
     0.000000000  0.000000000  5.470000000     0.000000000  0.000000000  0.182815356

  length of vectors
     5.470000000  5.470000000  5.470000000     0.182815356  0.182815356  0.182815356


 
 k-points in units of 2pi/SCALE and weight: Automatic mesh                          
   0.00000000  0.00000000  0.00000000       1.000
 
 k-points in reciprocal lattice and weights: Automatic mesh                          
   0.00000000  0.00000000  0.00000000       1.000
 
 position of ions in fractional coordinates (direct lattice) 
   0.00037222  0.99999585  0.99990036
   0.24999585  0.24990036  0.25001325
   0.49990036  0.50001325  0.99929422
   0.75001325  0.74929422  0.25045205
   0.49929422  0.00045205  0.50013994
   0.75045205  0.25013994  0.75001415
   0.00013994  0.50001415  0.50063661
   0.25001415  0.75063661  0.74955734
 
 position of ions in cartesian coordinates  (Angst):
   0.00203603  5.46997732  5.46945495
   1.36747732  1.36695495  1.36757248
   2.73445495  2.73507248  5.46613939
   4.10257248  4.09863939  1.36997270
   2.73113939  0.00247270  2.73576550
   4.10497270  1.36826550  4.10257741
   0.00076550  2.73507741  2.73848224
   1.36757741  4.10598224  4.10007865
 


--------------------------------------------------------------------------------------------------------


 k-point  1 :   0.0000 0.0000 0.0000  plane waves:    1021

 maximum and minimum number of plane-waves per node :      1021     1021

 maximum number of plane-waves:      1021
 maximum index in each direction: 
   IXMAX=    6   IYMAX=    6   IZMAX=    6
   IXMIN=   -6   IYMIN=   -6   IZMIN=   -6

 NGX is ok and might be reduce to  26
 NGY is ok and might be reduce to  26
 NGZ is ok and might be reduce to  26

 serial   3D FFT for wavefunctions
 parallel 3D FFT for charge:
    minimum data exchange during FFTs selected (reduces bandwidth)


 total amount of memory used by VASP on root node    32224. kBytes
========================================================================

   base      :      30000. kBytes
   nonl-proj :        202. kBytes
   fftplans  :        782. kBytes
   grid      :       1198. kBytes
   one-center:         24. kBytes
   wavefun   :         18. kBytes
 
 Broyden mixing: mesh for mixing (old mesh)
   NGX = 13   NGY = 13   NGZ = 13
  (NGX  = 56   NGY  = 56   NGZ  = 56)
  gives a total of   2197 points

 initial charge density was supplied:
 charge density of overlapping atoms calculated
 number of electron      32.0000000 magnetization 
 keeping initial charge density in first step


--------------------------------------------------------------------------------------------------------


 Maximum index for augmentation-charges         1783 (set IRDMAX)


--------------------------------------------------------------------------------------------------------


 First call to EWALD:  gamma=   0.324
 Maximum number of real-space cells 3x 3x 3
 Maximum number of reciprocal cells 3x 3x 3

 FEWALD executed in parallel
    FEWALD:  cpu time    0.00: real time    0.00


----------------------------------------- Iteration    1(   1)  ---------------------------------------


    POTLOK:  cpu time    0.03: real time    0.04
    SETDIJ:  cpu time    0.02: real time    0.02
     EDDAV:  cpu time    0.41: real time    0.41
       DOS:  cpu time    0.00: real time    0.00
    --------------------------------------------
      LOOP:  cpu time    0.47: real time    0.48

 eigenvalue-minimisations  :    96
 total energy-change (2. order) :-0.1015061E+02  (-0.7956187E+03)
 number of electron      32.0000000 magnetization 
 augmentation part       32.0000000 magnetization 

 Free energy of the ion-electron system (eV)
  ---------------------------------------------------
  alpha Z        PSCENC =        12.68944982
  Ewald energy   TEWEN  =      -907.56629071
  -1/2 Hartree   DENC   =       -45.63673865
  -exchange  EXHF       =         0.00000000
  -V(xc)+E(xc)   XCENC  =       -76.79671012
  PAW double counting   =       265.93453375     -123.69690146
  entropy T*S    EENTRO =        -0.00028605
  eigenvalues    EBANDS =        38.54834937
  atomic energy  EATOM  =       826.37398168
  ---------------------------------------------------
  free energy    TOTEN  =       -10.15061237 eV

  energy without entropy =      -10.15032632  energy(sigma->0) =      -10.15046934


--------------------------------------------------------------------------------------------------------




 average (electrostatic) potential at core
  the test charge radii are     0.9892
  (the norm of the test charge is              1.0000)
       1 -84.3493       2 -84.3510       3 -84.3475       4 -84.3423       5 -84.3515
       6 -84.3524       7 -84.3543       8 -84.3569
 
 
 
 E-fermi :   6.6044     XC(G=0):  -9.5533     alpha+bet :-11.7379


 k-point   1 :       0.0000    0.0000    0.0000
  band No.  band energies     occupation 
      1      -6.5895      2.00000
      2      -2.4124      2.00000
      3      -2.2498      2.00000
      4      -2.1202      2.00000
      5      -2.0245      2.00000
      6      -1.8724      2.00000
      7      -1.6889      2.00000
      8       2.7414      2.00000
      9       2.8509      2.00000
     10       2.9952      2.00000
     11       3.1621      2.00000
     12       3.3436      2.00000
     13       4.0747      2.00000
     14       6.1378      2.00000
     15       6.3635      2.00000
     16       6.5626      1.99688
     17       6.6462      0.00312
     18       6.8172      0.00000
     19       6.9067      0.00000
     20       7.1709      0.00000
     21       7.3829      0.00000
     22       8.0440      0.00000
     23       8.9821      0.00000
     24       9.3742      0.00000
     25      10.4522      0.00000
     26      11.4502      0.00000
     27      13.5071      0.00000
     28      14.7708      0.00000
     29      16.5629      0.00000
     30      16.8949      0.00000
     31      17.3552      0.00000
     32      17.5903      0.00000
     33      17.9364      0.00000
     34      18.1298      0.00000
     35      18.4996      0.00000
     36      18.8704      0.00000
     37      19.3644      0.00000
     38      19.5060      0.00000
     39      19.8627      0.00000
     40      20.2554      0.00000
     41      21.0964      0.00000
     42      21.6856      0.00000
     43      22.1723      0.00000
     44      22.7627      0.00000
     45      23.9114      0.00000
     46      24.4029      0.00000
     47      24.8092      0.00000
     48      25.8382      0.00000


--------------------------------------------------------------------------------------------------------


 soft charge-density along one line, spin component           1
         0         1         2         3         4         5         6         7         8         9
 total charge-density along one line
 
 pseudopotential strength for first ion, spin component:           1
 18.662   0.000   0.000   0.000   0.000   0.000   0.000   0.000
  0.000   0.006   0.000   0.000   0.000   0.000   0.000   0.000
  0.000   0.000   4.216   0.000   0.000  -0.004   0.000   0.000
  0.000   0.000   0.000   4.216   0.000   0.000  -0.004   0.000
  0.000   0.000   0.000   0.000   4.216   0.000   0.000  -0.004
  0.000   0.000  -0.004   0.000   0.000   0.005   0.000   0.000
  0.000   0.000   0.000  -0.004   0.000   0.000   0.005   0.000
  0.000   0.000   0.000   0.000  -0.004   0.000   0.000   0.005
 total augmentation occupancy for first ion, spin component:           1
  2.000   0.000   0.000   0.000   0.000   0.000   0.000   0.000
  0.000   0.000   0.000   0.000   0.000   0.000   0.000   0.000
  0.000   0.000   0.667   0.000   0.000   0.000   0.000   0.000
  0.000   0.000   0.000   0.667   0.000   0.000   0.000   0.000
  0.000   0.000   0.000   0.000   0.667   0.000   0.000   0.000
  0.000   0.000   0.000   0.000   0.000   0.000   0.000   0.000
  0.000   0.000   0.000   0.000   0.000   0.000   0.000   0.000
  0.000   0.000   0.000   0.000   0.000   0.000   0.000   0.000


----------------------------------------- Iteration    1(   2)  ---------------------------------------


     EDDAV:  cpu time    1.02: real time    1.02
       DOS:  cpu time    0.00: real time    0.00
    --------------------------------------------
      LOOP:  cpu time    1.04: real time    1.04

 eigenvalue-minimisations  :   144
 total energy-change (2. order) :-0.2429994E+02  (-0.2429695E+02)
 number of electron      32.0000000 magnetization 
 augmentation part       32.0000000 magnetization 

 Free energy of the ion-electron system (eV)
  ---------------------------------------------------
  alpha Z        PSCENC =        12.68944982
  Ewald energy   TEWEN  =      -907.56629071
  -1/2 Hartree   DENC   =       -45.63673865
  -exchange  EXHF       =         0.00000000
  -V(xc)+E(xc)   XCENC  =       -76.79671012
  PAW double counting   =       265.93453375     -123.69690146
  entropy T*S    EENTRO =         0.00000000
  eigenvalues    EBANDS =        14.24812042
  atomic energy  EATOM  =       826.37398168
  ---------------------------------------------------
  free energy    TOTEN  =       -34.45055527 eV

  energy without entropy =      -34.45055527  energy(sigma->0) =      -34.45055527


--------------------------------------------------------------------------------------------------------




 average (electrostatic) potential at core
  the test charge radii are     0.9892
  (the norm of the test charge is              1.0000)
       1 -84.3493       2 -84.3510       3 -84.3475       4 -84.3423       5 -84.3515
       6 -84.3524       7 -84.3543       8 -84.3569
 
 
 
 E-fermi :   5.2529     XC(G=0):  -9.5533     alpha+bet :-11.7379


 k-point   1 :       0.0000    0.0000    0.0000
  band No.  band energies     occupation 
      1      -6.6372      2.00000
      2      -2.6465      2.00000
      3      -2.6382      2.00000
      4      -2.6305      2.00000
      5      -2.6278      2.00000
      6      -2.6229      2.00000
      7      -2.6091      2.00000
      8       2.3751      2.00000
      9       2.3786      2.00000
     10       2.3804      2.00000
     11       2.3828      2.00000
     12       2.3854      2.00000
     13       2.3936      2.00000
     14       5.0670      2.00000
     15       5.0820      2.00000
     16       5.0913      2.00000
     17       6.1424      0.00000
     18       6.1494      0.00000
     19       6.1555      0.00000
     20       6.1597      0.00000
     21       6.1619      0.00000
     22       6.1708      0.00000
     23       7.8517      0.00000
     24       7.8569      0.00000
     25       7.8630      0.00000
     26       8.1266      0.00000
     27      13.2004      0.00000
     28      13.2623      0.00000
     29      13.2699      0.00000
     30      15.1006      0.00000
     31      15.1345      0.00000
     32      15.1700      0.00000
     33      15.2504      0.00000
     34      15.3124      0.00000
     35      15.6293      0.00000
     36      16.3703      0.00000
     37      16.4206      0.00000
     38      16.4541      0.00000
     39      16.5426      0.00000
     40      16.7145      0.00000
     41      16.7487      0.00000
     42      16.7715      0.00000
     43      16.8727      0.00000
     44      17.2249      0.00000
     45      17.9072      0.00000
     46      17.9527      0.00000
     47      17.9863      0.00000
     48      18.0247      0.00000


--------------------------------------------------------------------------------------------------------


 soft charge-density along one line, spin component           1
         0         1         2         3         4         5         6         7         8         9
 total charge-density along one line
 
 pseudopotential strength for first ion, spin component:           1
 18.662   0.000   0.000   0.000   0.000   0.000   0.000   0.000
  0.000   0.006   0.000   0.000   0.000   0.000   0.000   0.000
  0.000   0.000   4.216   0.000   0.000  -0.004   0.000   0.000
  0.000   0.000   0.000   4.216   0.000   0.000  -0.004   0.000
  0.000   0.000   0.000   0.000   4.216   0.000   0.000  -0.004
  0.000   0.000  -0.004   0.000   0.000   0.005   0.000   0.000
  0.000   0.000   0.000  -0.004   0.000   0.000   0.005   0.000
  0.000   0.000   0.000   0.000  -0.004   0.000   0.000   0.005
 total augmentation occupancy for first ion, spin component:           1
  2.000   0.000   0.000   0.000   0.000   0.000   0.000   0.000
  0.000   0.000   0.000   0.000   0.000   0.000   0.000   0.000
  0.000   0.000   0.667   0.000   0.000   0.000   0.000   0.000
  0.000   0.000   0.000   0.667   0.000   0.000   0.000   0.000
  0.000   0.000   0.000   0.000   0.667   0.000   0.000   0.000
  0.000   0.000   0.000   0.000   0.000   0.000   0.000   0.000
  0.000   0.000   0.000   0.000   0.000   0.000   0.000   0.000
  0.000   0.000   0.000   0.000   0.000   0.000   0.000   0.000


----------------------------------------- Iteration    1(   3)  ---------------------------------------


     EDDAV:  cpu time    0.41: real time    0.41
       DOS:  cpu time    0.00: real time    0.00
    --------------------------------------------
      LOOP:  cpu time    0.42: real time    0.42

 eigenvalue-minimisations  :    96
 total energy-change (2. order) :-0.1670615E+00  (-0.1670615E+00)
 number of electron      32.0000000 magnetization 
 augmentation part       32.0000000 magnetization 

 Free energy of the ion-electron system (eV)
  ---------------------------------------------------
  alpha Z        PSCENC =        12.68944982
  Ewald energy   TEWEN  =      -907.56629071
  -1/2 Hartree   DENC   =       -45.63673865
  -exchange  EXHF       =         0.00000000
  -V(xc)+E(xc)   XCENC  =       -76.79671012
  PAW double counting   =       265.93453375     -123.69690146
  entropy T*S    EENTRO =         0.00000000
  eigenvalues    EBANDS =        14.08105895
  atomic energy  EATOM  =       826.37398168
  ---------------------------------------------------
  free energy    TOTEN  =       -34.61761674 eV

  energy without entropy =      -34.61761674  energy(sigma->0) =      -34.61761674


--------------------------------------------------------------------------------------------------------




 average (electrostatic) potential at core
  the test charge radii are     0.9892
  (the norm of the test charge is              1.0000)
       1 -84.3493       2 -84.3510       3 -84.3475       4 -84.3423       5 -84.3515
       6 -84.3524       7 -84.3543       8 -84.3569
 
 
 
 E-fermi :   5.2127     XC(G=0):  -9.5533     alpha+bet :-11.7379


 k-point   1 :       0.0000    0.0000    0.0000
  band No.  band energies     occupation 
      1      -6.6372      2.00000
      2      -2.6498      2.00000
      3      -2.6402      2.00000
      4      -2.6325      2.00000
      5      -2.6290      2.00000
      6      -2.6252      2.00000
      7      -2.6115      2.00000
      8       2.3693      2.00000
      9       2.3743      2.00000
     10       2.3773      2.00000
     11       2.3784      2.00000
     12       2.3804      2.00000
     13       2.3862      2.00000
     14       5.0599      2.00000
     15       5.0671      2.00000
     16       5.0730      2.00000
     17       6.1385      0.00000
     18       6.1461      0.00000
     19       6.1527      0.00000
     20       6.1562      0.00000
     21       6.1597      0.00000
     22       6.1659      0.00000
     23       7.8460      0.00000
     24       7.8493      0.00000
     25       7.8534      0.00000
     26       8.1178      0.00000
     27      13.1844      0.00000
     28      13.1867      0.00000
     29      13.2693      0.00000
     30      15.0836      0.00000
     31      15.0904      0.00000
     32      15.0941      0.00000
     33      15.1117      0.00000
     34      15.1283      0.00000
     35      15.1758      0.00000
     36      16.3069      0.00000
     37      16.3243      0.00000
     38      16.3455      0.00000
     39      16.3743      0.00000
     40      16.4352      0.00000
     41      16.4846      0.00000
     42      16.7141      0.00000
     43      16.7175      0.00000
     44      16.8134      0.00000
     45      17.8767      0.00000
     46      17.8917      0.00000
     47      17.9202      0.00000
     48      17.9412      0.00000


--------------------------------------------------------------------------------------------------------


 soft charge-density along one line, spin component           1
         0         1         2         3         4         5         6         7         8         9
 total charge-density along one line
 
 pseudopotential strength for first ion, spin component:           1
 18.662   0.000   0.000   0.000   0.000   0.000   0.000   0.000
  0.000   0.006   0.000   0.000   0.000   0.000   0.000   0.000
  0.000   0.000   4.216   0.000   0.000  -0.004   0.000   0.000
  0.000   0.000   0.000   4.216   0.000   0.000  -0.004   0.000
  0.000   0.000   0.000   0.000   4.216   0.000   0.000  -0.004
  0.000   0.000  -0.004   0.000   0.000   0.005   0.000   0.000
  0.000   0.000   0.000  -0.004   0.000   0.000   0.005   0.000
  0.000   0.000   0.000   0.000  -0.004   0.000   0.000   0.005
 total augmentation occupancy for first ion, spin component:           1
  2.000   0.000   0.000   0.000   0.000   0.000   0.000   0.000
  0.000   0.000   0.000   0.000   0.000   0.000   0.000   0.000
  0.000   0.000   0.667   0.000   0.000   0.000   0.000   0.000
  0.000   0.000   0.000   0.667   0.000   0.000   0.000   0.000
  0.000   0.000   0.000   0.000   0.667   0.000   0.000   0.000
  0.000   0.000   0.000   0.000   0.000   0.000   0.000   0.000
  0.000   0.000   0.000   0.000   0.000   0.000   0.000   0.000
  0.000   0.000   0.000   0.000   0.000   0.000   0.000   0.000


----------------------------------------- Iteration    1(   4)  ---------------------------------------


     EDDAV:  cpu time    2.03: real time    2.03
       DOS:  cpu time    0.00: real time    0.00
    --------------------------------------------
      LOOP:  cpu time    2.03: real time    2.04

 eigenvalue-minimisations  :   192
 total energy-change (2. order) :-0.3540174E-03  (-0.3540174E-03)
 number of electron      32.0000000 magnetization 
 augmentation part       32.0000000 magnetization 

 Free energy of the ion-electron system (eV)
  ---------------------------------------------------
  alpha Z        PSCENC =        12.68944982
  Ewald energy   TEWEN  =      -907.56629071
  -1/2 Hartree   DENC   =       -45.63673865
  -exchange  EXHF       =         0.00000000
  -V(xc)+E(xc)   XCENC  =       -76.79671012
  PAW double counting   =       265.93453375     -123.69690146
  entropy T*S    EENTRO =         0.00000000
  eigenvalues    EBANDS =        14.08070493
  atomic energy  EATOM  =       826.37398168
  ---------------------------------------------------
  free energy    TOTEN  =       -34.61797076 eV

  energy without entropy =      -34.61797076  energy(sigma->0) =      -34.61797076


--------------------------------------------------------------------------------------------------------




 average (electrostatic) potential at core
  the test charge radii are     0.9892
  (the norm of the test charge is              1.0000)
       1 -84.3493       2 -84.3510       3 -84.3475       4 -84.3423       5 -84.3515
       6 -84.3524       7 -84.3543       8 -84.3569
 
 
 
 E-fermi :   5.2017     XC(G=0):  -9.5533     alpha+bet :-11.7379


 k-point   1 :       0.0000    0.0000    0.0000
  band No.  band energies     occupation 
      1      -6.6372      2.00000
      2      -2.6498      2.00000
      3      -2.6402      2.00000
      4      -2.6325      2.00000
      5      -2.6290      2.00000
      6      -2.6252      2.00000
      7      -2.6116      2.00000
      8       2.3693      2.00000
      9       2.3742      2.00000
     10       2.3773      2.00000
     11       2.3784      2.00000
     12       2.3804      2.00000
     13       2.3862      2.00000
     14       5.0599      2.00000
     15       5.0671      2.00000
     16       5.0730      2.00000
     17       6.1385      0.00000
     18       6.1461      0.00000
     19       6.1527      0.00000
     20       6.1562      0.00000
     21       6.1597      0.00000
     22       6.1659      0.00000
     23       7.8460      0.00000
     24       7.8493      0.00000
     25       7.8533      0.00000
     26       8.1178      0.00000
     27      13.1837      0.00000
     28      13.1838      0.00000
     29      13.2692      0.00000
     30      15.0721      0.00000
     31      15.0818      0.00000
     32      15.0831      0.00000
     33      15.0861      0.00000
     34      15.0884      0.00000
     35      15.0971      0.00000
     36      16.2911      0.00000
     37      16.2995      0.00000
     38      16.3081      0.00000
     39      16.3136      0.00000
     40      16.3204      0.00000
     41      16.3297      0.00000
     42      16.7006      0.00000
     43      16.7042      0.00000
     44      16.7085      0.00000
     45      17.8679      0.00000
     46      17.8783      0.00000
     47      17.8897      0.00000
     48      17.8951      0.00000


--------------------------------------------------------------------------------------------------------


 soft charge-density along one line, spin component           1
         0         1         2         3         4         5         6         7         8         9
 total charge-density along one line
 
 pseudopotential strength for first ion, spin component:           1
 18.662   0.000   0.000   0.000   0.000   0.000   0.000   0.000
  0.000   0.006   0.000   0.000   0.000   0.000   0.000   0.000
  0.000   0.000   4.216   0.000   0.000  -0.004   0.000   0.000
  0.000   0.000   0.000   4.216   0.000   0.000  -0.004   0.000
  0.000   0.000   0.000   0.000   4.216   0.000   0.000  -0.004
  0.000   0.000  -0.004   0.000   0.000   0.005   0.000   0.000
  0.000   0.000   0.000  -0.004   0.000   0.000   0.005   0.000
  0.000   0.000   0.000   0.000  -0.004   0.000   0.000   0.005
 total augmentation occupancy for first ion, spin component:           1
  2.000   0.000   0.000   0.000   0.000   0.000   0.000   0.000
  0.000   0.000   0.000   0.000   0.000   0.000   0.000   0.000
  0.000   0.000   0.667   0.000   0.000   0.000   0.000   0.000
  0.000   0.000   0.000   0.667   0.000   0.000   0.000   0.000
  0.000   0.000   0.000   0.000   0.667   0.000   0.000   0.000
  0.000   0.000   0.000   0.000   0.000   0.000   0.000   0.000
  0.000   0.000   0.000   0.000   0.000   0.000   0.000   0.000
  0.000   0.000   0.000   0.000   0.000   0.000   0.000   0.000


----------------------------------------- Iteration    1(   5)  ---------------------------------------


     EDDAV:  cpu time    0.39: real time    0.39
       DOS:  cpu time    0.00: real time    0.00
    CHARGE:  cpu time    0.02: real time    0.02
    MIXING:  cpu time    0.00: real time    0.00
    --------------------------------------------
      LOOP:  cpu time    0.42: real time    0.43

 eigenvalue-minimisations  :    96
 total energy-change (2. order) :-0.3025775E-08  (-0.3026676E-08)
 number of electron      31.9999999 magnetization 
 augmentation part       -1.8053363 magnetization 

 Broyden mixing:
  rms(total) = 0.79306E+00    rms(broyden)= 0.79301E+00
  rms(prec ) = 0.15229E+01
  weight for this iteration     100.00

 Free energy of the ion-electron system (eV)
  ---------------------------------------------------
  alpha Z        PSCENC =        12.68944982
  Ewald energy   TEWEN  =      -907.56629071
  -1/2 Hartree   DENC   =       -45.63673865
  -exchange  EXHF       =         0.00000000
  -V(xc)+E(xc)   XCENC  =       -76.79671012
  PAW double counting   =       265.93453375     -123.69690146
  entropy T*S    EENTRO =         0.00000000
  eigenvalues    EBANDS =        14.08070493
  atomic energy  EATOM  =       826.37398168
  ---------------------------------------------------
  free energy    TOTEN  =       -34.61797076 eV

  energy without entropy =      -34.61797076  energy(sigma->0) =      -34.61797076


--------------------------------------------------------------------------------------------------------




 average (electrostatic) potential at core
  the test charge radii are     0.9892
  (the norm of the test charge is              1.0000)
       1 -84.3493       2 -84.3510       3 -84.3475       4 -84.3423       5 -84.3515
       6 -84.3524       7 -84.3543       8 -84.3569
 
 
 
 E-fermi :   5.1962     XC(G=0):  -9.5533     alpha+bet :-11.7379


 k-point   1 :       0.0000    0.0000    0.0000
  band No.  band energies     occupation 
      1      -6.6372      2.00000
      2      -2.6498      2.00000
      3      -2.6402      2.00000
      4      -2.6325      2.00000
      5      -2.6290      2.00000
      6      -2.6252      2.00000
      7      -2.6116      2.00000
      8       2.3693      2.00000
      9       2.3742      2.00000
     10       2.3773      2.00000
     11       2.3784      2.00000
     12       2.3804      2.00000
     13       2.3862      2.00000
     14       5.0599      2.00000
     15       5.0671      2.00000
     16       5.0730      2.00000
     17       6.1385      0.00000
     18       6.1461      0.00000
     19       6.1527      0.00000
     20       6.1562      0.00000
     21       6.1597      0.00000
     22       6.1659      0.00000
     23       7.8460      0.00000
     24       7.8493      0.00000
     25       7.8533      0.00000
     26       8.1178      0.00000
     27      13.1837      0.00000
     28      13.1838      0.00000
     29      13.2692      0.00000
     30      15.0720      0.00000
     31      15.0818      0.00000
     32      15.0830      0.00000
     33      15.0860      0.00000
     34      15.0883      0.00000
     35      15.0971      0.00000
     36      16.2908      0.00000
     37      16.2993      0.00000
     38      16.3078      0.00000
     39      16.3131      0.00000
     40      16.3201      0.00000
     41      16.3294      0.00000
     42      16.7004      0.00000
     43      16.7041      0.00000
     44      16.7084      0.00000
     45      17.8647      0.00000
     46      17.8764      0.00000
     47      17.8816      0.00000
     48      17.8839      0.00000


--------------------------------------------------------------------------------------------------------


 soft charge-density along one line, spin component           1
         0         1         2         3         4         5         6         7         8         9
 total charge-density along one line
 
 pseudopotential strength for first ion, spin component:           1
 18.662   0.000   0.000   0.000   0.000   0.000   0.000   0.000
  0.000   0.006   0.000   0.000   0.000   0.000   0.000   0.000
  0.000   0.000   4.216   0.000   0.000  -0.004   0.000   0.000
  0.000   0.000   0.000   4.216   0.000   0.000  -0.004   0.000
  0.000   0.000   0.000   0.000   4.216   0.000   0.000  -0.004
  0.000   0.000  -0.004   0.000   0.000   0.005   0.000   0.000
  0.000   0.000   0.000  -0.004   0.000   0.000   0.005   0.000
  0.000   0.000   0.000   0.000  -0.004   0.000   0.000   0.005
 total augmentation occupancy for first ion, spin component:           1
  1.380  -1.051   0.001  -0.002   0.002  -0.001   0.002  -0.002
 -1.051   0.918  -0.001   0.001  -0.001   0.002  -0.002   0.002
  0.001  -0.001   1.164   0.001  -0.001  -0.758  -0.001   0.001
 -0.002   0.001   0.001   1.166   0.001  -0.002  -0.759  -0.001
  0.002  -0.001  -0.001   0.001   1.163   0.001  -0.001  -0.757
 -0.001   0.002  -0.758  -0.002   0.001   0.569   0.002  -0.001
  0.002  -0.002  -0.001  -0.759  -0.001   0.002   0.570   0.001
 -0.002   0.002   0.001  -0.001  -0.757  -0.001   0.001   0.568


----------------------------------------- Iteration    1(   6)  ---------------------------------------


    POTLOK:  cpu time    0.03: real time    0.03
    SETDIJ:  cpu time    0.02: real time    0.02
    EDDIAG:  cpu time    0.04: real time    0.05
  RMM-DIIS:  cpu time    0.05: real time    0.05
    ORTHCH:  cpu time    0.01: real time    0.01
       DOS:  cpu time    0.00: real time    0.00
    CHARGE:  cpu time    0.02: real time    0.02
    MIXING:  cpu time    0.00: real time    0.00
    --------------------------------------------
      LOOP:  cpu time    0.18: real time    0.18

 eigenvalue-minimisations  :    96
 total energy-change (2. order) : 0.1001708E+01  (-0.3198213E-01)
 number of electron      31.9999999 magnetization 
 augmentation part       -1.7684085 magnetization 

 Broyden mixing:
  rms(total) = 0.47399E+00    rms(broyden)= 0.47399E+00
  rms(prec ) = 0.91065E+00
  weight for this iteration     100.00

 eigenvalues of (default mixing * dielectric matrix)
  average eigenvalue GAMMA=   2.4573
  2.4573

 Free energy of the ion-electron system (eV)
  ---------------------------------------------------
  alpha Z        PSCENC =        12.68944982
  Ewald energy   TEWEN  =      -907.56629071
  -1/2 Hartree   DENC   =       -54.68324271
  -exchange  EXHF       =         0.00000000
  -V(xc)+E(xc)   XCENC  =       -75.44941241
  PAW double counting   =       286.06062341     -144.35892993
  entropy T*S    EENTRO =         0.00000000
  eigenvalues    EBANDS =        23.31755834
  atomic energy  EATOM  =       826.37398168
  ---------------------------------------------------
  free energy    TOTEN  =       -33.61626252 eV

  energy without entropy =      -33.61626252  energy(sigma->0) =      -33.61626252


--------------------------------------------------------------------------------------------------------




 average (electrostatic) potential at core
  the test charge radii are     0.9892
  (the norm of the test charge is              1.0000)
       1 -83.8322       2 -83.8331       3 -83.8313       4 -83.8287       5 -83.8332
       6 -83.8337       7 -83.8346       8 -83.8359
 
 
 
 E-fermi :   5.5480     XC(G=0):  -9.4504     alpha+bet :-11.7379


 k-point   1 :       0.0000    0.0000    0.0000
  band No.  band energies     occupation 
      1      -6.3788      2.00000
      2      -2.3483      2.00000
      3      -2.3400      2.00000
      4      -2.3334      2.00000
      5      -2.3303      2.00000
      6      -2.3273      2.00000
      7      -2.3155      2.00000
      8       2.6314      2.00000
      9       2.6355      2.00000
     10       2.6384      2.00000
     11       2.6394      2.00000
     12       2.6413      2.00000
     13       2.6462      2.00000
     14       5.3934      2.00000
     15       5.4005      2.00000
     16       5.4063      2.00000
     17       6.2546      0.00000
     18       6.2612      0.00000
     19       6.2672      0.00000
     20       6.2704      0.00000
     21       6.2733      0.00000
     22       6.2789      0.00000
     23       8.0533      0.00000
     24       8.0566      0.00000
     25       8.0608      0.00000
     26       8.4862      0.00000
     27      13.3049      0.00000
     28      13.3568      0.00000
     29      13.3569      0.00000
     30      15.3692      0.00000
     31      15.3780      0.00000
     32      15.3793      0.00000
     33      15.3820      0.00000
     34      15.3844      0.00000
     35      15.3923      0.00000
     36      16.5284      0.00000
     37      16.5361      0.00000
     38      16.5438      0.00000
     39      16.5487      0.00000
     40      16.5549      0.00000
     41      16.5635      0.00000
     42      16.7450      0.00000
     43      16.7489      0.00000
     44      16.7531      0.00000
     45      18.1516      0.00000
     46      18.1665      0.00000
     47      18.1695      0.00000
     48      18.1725      0.00000


--------------------------------------------------------------------------------------------------------


 soft charge-density along one line, spin component           1
         0         1         2         3         4         5         6         7         8         9
 total charge-density along one line
 
 pseudopotential strength for first ion, spin component:           1
 18.635  -0.001   0.000   0.000   0.000   0.000   0.000   0.000
 -0.001   0.006   0.000   0.000   0.000   0.000   0.000   0.000
  0.000   0.000   4.221   0.000   0.000  -0.004   0.000   0.000
  0.000   0.000   0.000   4.221   0.000   0.000  -0.004   0.000
  0.000   0.000   0.000   0.000   4.221   0.000   0.000  -0.004
  0.000   0.000  -0.004   0.000   0.000   0.005   0.000   0.000
  0.000   0.000   0.000  -0.004   0.000   0.000   0.005   0.000
  0.000   0.000   0.000   0.000  -0.004   0.000   0.000   0.005
 total augmentation occupancy for first ion, spin component:           1
  1.351  -1.089   0.001  -0.002   0.002  -0.002   0.002  -0.003
 -1.089   0.996   0.000   0.000   0.000   0.002  -0.002   0.002
  0.001   0.000   1.146   0.001  -0.001  -0.781  -0.002   0.001
 -0.002   0.000   0.001   1.148   0.001  -0.002  -0.782  -0.001
  0.002   0.000  -0.001   0.001   1.145   0.001  -0.001  -0.781
 -0.002   0.002  -0.781  -0.002   0.001   0.608   0.002  -0.001
  0.002  -0.002  -0.002  -0.782  -0.001   0.002   0.608   0.001
 -0.003   0.002   0.001  -0.001  -0.781  -0.001   0.001   0.606


----------------------------------------- Iteration    1(   7)  ---------------------------------------


    POTLOK:  cpu time    0.02: real time    0.02
    SETDIJ:  cpu time    0.02: real time    0.02
    EDDIAG:  cpu time    0.02: real time    0.02
  RMM-DIIS:  cpu time    0.03: real time    0.03
    ORTHCH:  cpu time    0.01: real time    0.01
       DOS:  cpu time    0.00: real time    0.00
    CHARGE:  cpu time    0.02: real time    0.02
    MIXING:  cpu time    0.00: real time    0.00
    --------------------------------------------
      LOOP:  cpu time    0.12: real time    0.13

 eigenvalue-minimisations  :    96
 total energy-change (2. order) : 0.4246589E+00  (-0.7388321E-01)
 number of electron      31.9999999 magnetization 
 augmentation part       -1.7214538 magnetization 

 Broyden mixing:
  rms(total) = 0.46254E-01    rms(broyden)= 0.46244E-01
  rms(prec ) = 0.78467E-01
  weight for this iteration     100.00

 eigenvalues of (default mixing * dielectric matrix)
  average eigenvalue GAMMA=   2.5299
  2.5299  2.5299

 Free energy of the ion-electron system (eV)
  ---------------------------------------------------
  alpha Z        PSCENC =        12.68944982
  Ewald energy   TEWEN  =      -907.56629071
  -1/2 Hartree   DENC   =       -70.51394936
  -exchange  EXHF       =         0.00000000
  -V(xc)+E(xc)   XCENC  =       -73.00931298
  PAW double counting   =       313.72432106     -172.73632315
  entropy T*S    EENTRO =         0.00000000
  eigenvalues    EBANDS =        37.84652006
  atomic energy  EATOM  =       826.37398168
  ---------------------------------------------------
  free energy    TOTEN  =       -33.19160358 eV

  energy without entropy =      -33.19160358  energy(sigma->0) =      -33.19160358


--------------------------------------------------------------------------------------------------------




 average (electrostatic) potential at core
  the test charge radii are     0.9892
  (the norm of the test charge is              1.0000)
       1 -83.1449       2 -83.1454       3 -83.1444       4 -83.1433       5 -83.1459
       6 -83.1461       7 -83.1469       8 -83.1475
 
 
 
 E-fermi :   6.0968     XC(G=0):  -9.2018     alpha+bet :-11.7379


 k-point   1 :       0.0000    0.0000    0.0000
  band No.  band energies     occupation 
      1      -5.9621      2.00000
      2      -1.8795      2.00000
      3      -1.8725      2.00000
      4      -1.8669      2.00000
      5      -1.8639      2.00000
      6      -1.8617      2.00000
      7      -1.8515      2.00000
      8       3.0449      2.00000
      9       3.0481      2.00000
     10       3.0511      2.00000
     11       3.0518      2.00000
     12       3.0540      2.00000
     13       3.0578      2.00000
     14       5.9181      2.00000
     15       5.9250      2.00000
     16       5.9307      2.00000
     17       6.5150      0.00000
     18       6.5203      0.00000
     19       6.5257      0.00000
     20       6.5285      0.00000
     21       6.5307      0.00000
     22       6.5357      0.00000
     23       8.3784      0.00000
     24       8.3818      0.00000
     25       8.3860      0.00000
     26       9.0452      0.00000
     27      13.6012      0.00000
     28      13.6204      0.00000
     29      13.6204      0.00000
     30      15.8203      0.00000
     31      15.8282      0.00000
     32      15.8295      0.00000
     33      15.8318      0.00000
     34      15.8340      0.00000
     35      15.8411      0.00000
     36      16.8989      0.00000
     37      16.9020      0.00000
     38      16.9077      0.00000
     39      16.9497      0.00000
     40      16.9573      0.00000
     41      16.9635      0.00000
     42      16.9678      0.00000
     43      16.9737      0.00000
     44      16.9813      0.00000
     45      18.6466      0.00000
     46      18.6617      0.00000
     47      18.6718      0.00000
     48      18.6751      0.00000


--------------------------------------------------------------------------------------------------------


 soft charge-density along one line, spin component           1
         0         1         2         3         4         5         6         7         8         9
 total charge-density along one line
 
 pseudopotential strength for first ion, spin component:           1
 18.596  -0.001   0.000   0.000   0.000   0.000   0.000   0.000
 -0.001   0.006   0.000   0.000   0.000   0.000   0.000   0.000
  0.000   0.000   4.227   0.000   0.000  -0.005   0.000   0.000
  0.000   0.000   0.000   4.227   0.000   0.000  -0.005   0.000
  0.000   0.000   0.000   0.000   4.227   0.000   0.000  -0.005
  0.000   0.000  -0.005   0.000   0.000   0.005   0.000   0.000
  0.000   0.000   0.000  -0.005   0.000   0.000   0.005   0.000
  0.000   0.000   0.000   0.000  -0.005   0.000   0.000   0.005
 total augmentation occupancy for first ion, spin component:           1
  1.315  -1.111   0.002  -0.003   0.002  -0.002   0.003  -0.003
 -1.111   1.057   0.000  -0.001   0.000   0.002  -0.002   0.002
  0.002   0.000   1.122   0.002  -0.002  -0.805  -0.002   0.002
 -0.003  -0.001   0.002   1.123   0.001  -0.002  -0.805  -0.001
  0.002   0.000  -0.002   0.001   1.121   0.002  -0.001  -0.804
 -0.002   0.002  -0.805  -0.002   0.002   0.652   0.002  -0.002
  0.003  -0.002  -0.002  -0.805  -0.001   0.002   0.652   0.001
 -0.003   0.002   0.002  -0.001  -0.804  -0.002   0.001   0.650


----------------------------------------- Iteration    1(   8)  ---------------------------------------


    POTLOK:  cpu time    0.02: real time    0.02
    SETDIJ:  cpu time    0.02: real time    0.02
    EDDIAG:  cpu time    0.02: real time    0.02
  RMM-DIIS:  cpu time    0.04: real time    0.04
    ORTHCH:  cpu time    0.01: real time    0.01
       DOS:  cpu time    0.00: real time    0.00
    CHARGE:  cpu time    0.02: real time    0.02
    MIXING:  cpu time    0.00: real time    0.00
    --------------------------------------------
      LOOP:  cpu time    0.14: real time    0.14

 eigenvalue-minimisations  :    96
 total energy-change (2. order) :-0.3197367E-01  (-0.2160935E-02)
 number of electron      31.9999999 magnetization 
 augmentation part       -1.7275466 magnetization 

 Broyden mixing:
  rms(total) = 0.75075E-02    rms(broyden)= 0.75070E-02
  rms(prec ) = 0.17991E-01
  weight for this iteration     100.00

 eigenvalues of (default mixing * dielectric matrix)
  average eigenvalue GAMMA=   2.1204
  1.2720  2.8638  2.2252

 Free energy of the ion-electron system (eV)
  ---------------------------------------------------
  alpha Z        PSCENC =        12.68944982
  Ewald energy   TEWEN  =      -907.56629071
  -1/2 Hartree   DENC   =       -70.39877488
  -exchange  EXHF       =         0.00000000
  -V(xc)+E(xc)   XCENC  =       -72.96578252
  PAW double counting   =       307.36482434     -166.19209755
  entropy T*S    EENTRO =         0.00000000
  eigenvalues    EBANDS =        37.47111257
  atomic energy  EATOM  =       826.37398168
  ---------------------------------------------------
  free energy    TOTEN  =       -33.22357725 eV

  energy without entropy =      -33.22357725  energy(sigma->0) =      -33.22357725


--------------------------------------------------------------------------------------------------------




 average (electrostatic) potential at core
  the test charge radii are     0.9892
  (the norm of the test charge is              1.0000)
       1 -83.2474       2 -83.2487       3 -83.2460       4 -83.2422       5 -83.2492
       6 -83.2498       7 -83.2514       8 -83.2532
 
 
 
 E-fermi :   6.0359     XC(G=0):  -9.1505     alpha+bet :-11.7379


 k-point   1 :       0.0000    0.0000    0.0000
  band No.  band energies     occupation 
      1      -5.9632      2.00000
      2      -1.8925      2.00000
      3      -1.8848      2.00000
      4      -1.8785      2.00000
      5      -1.8754      2.00000
      6      -1.8727      2.00000
      7      -1.8615      2.00000
      8       3.0328      2.00000
      9       3.0363      2.00000
     10       3.0395      2.00000
     11       3.0404      2.00000
     12       3.0428      2.00000
     13       3.0469      2.00000
     14       5.9020      2.00000
     15       5.9089      2.00000
     16       5.9146      2.00000
     17       6.5653      0.00000
     18       6.5709      0.00000
     19       6.5764      0.00000
     20       6.5794      0.00000
     21       6.5818      0.00000
     22       6.5871      0.00000
     23       8.3677      0.00000
     24       8.3711      0.00000
     25       8.3753      0.00000
     26       9.0381      0.00000
     27      13.6064      0.00000
     28      13.6064      0.00000
     29      13.7782      0.00000
     30      15.8053      0.00000
     31      15.8139      0.00000
     32      15.8148      0.00000
     33      15.8173      0.00000
     34      15.8191      0.00000
     35      15.8268      0.00000
     36      16.9354      0.00000
     37      16.9375      0.00000
     38      16.9444      0.00000
     39      16.9558      0.00000
     40      16.9643      0.00000
     41      16.9700      0.00000
     42      16.9746      0.00000
     43      16.9808      0.00000
     44      16.9887      0.00000
     45      18.6829      0.00000
     46      18.6977      0.00000
     47      18.7103      0.00000
     48      18.7135      0.00000


--------------------------------------------------------------------------------------------------------


 soft charge-density along one line, spin component           1
         0         1         2         3         4         5         6         7         8         9
 total charge-density along one line
 
 pseudopotential strength for first ion, spin component:           1
 18.599  -0.001   0.000   0.000   0.000   0.000   0.000   0.000
 -0.001   0.006   0.000   0.000   0.000   0.000   0.000   0.000
  0.000   0.000   4.224   0.000   0.000  -0.005   0.000   0.000
  0.000   0.000   0.000   4.224   0.000   0.000  -0.005   0.000
  0.000   0.000   0.000   0.000   4.224   0.000   0.000  -0.005
  0.000   0.000  -0.005   0.000   0.000   0.005   0.000   0.000
  0.000   0.000   0.000  -0.005   0.000   0.000   0.005   0.000
  0.000   0.000   0.000   0.000  -0.005   0.000   0.000   0.005
 total augmentation occupancy for first ion, spin component:           1
  1.320  -1.092   0.001  -0.002   0.002  -0.002   0.002  -0.003
 -1.092   1.020   0.000   0.000   0.000   0.002  -0.002   0.002
  0.001   0.000   1.123   0.001  -0.002  -0.800  -0.002   0.002
 -0.002   0.000   0.001   1.124   0.001  -0.002  -0.801  -0.001
  0.002   0.000  -0.002   0.001   1.122   0.002  -0.001  -0.800
 -0.002   0.002  -0.800  -0.002   0.002   0.646   0.002  -0.002
  0.002  -0.002  -0.002  -0.801  -0.001   0.002   0.647   0.001
 -0.003   0.002   0.002  -0.001  -0.800  -0.002   0.001   0.646


----------------------------------------- Iteration    1(   9)  ---------------------------------------


    POTLOK:  cpu time    0.02: real time    0.02
    SETDIJ:  cpu time    0.02: real time    0.02
    EDDIAG:  cpu time    0.02: real time    0.02
  RMM-DIIS:  cpu time    0.04: real time    0.04
    ORTHCH:  cpu time    0.01: real time    0.01
       DOS:  cpu time    0.00: real time    0.00
    CHARGE:  cpu time    0.02: real time    0.02
    MIXING:  cpu time    0.00: real time    0.00
    --------------------------------------------
      LOOP:  cpu time    0.14: real time    0.14

 eigenvalue-minimisations  :   106
 total energy-change (2. order) :-0.1136347E-02  (-0.1266371E-03)
 number of electron      31.9999999 magnetization 
 augmentation part       -1.7274663 magnetization 

 Broyden mixing:
  rms(total) = 0.41776E-02    rms(broyden)= 0.41775E-02
  rms(prec ) = 0.68495E-02
  weight for this iteration     100.00

 eigenvalues of (default mixing * dielectric matrix)
  average eigenvalue GAMMA=   2.2796
  0.9843  3.1858  2.6553  2.2931

 Free energy of the ion-electron system (eV)
  ---------------------------------------------------
  alpha Z        PSCENC =        12.68944982
  Ewald energy   TEWEN  =      -907.56629071
  -1/2 Hartree   DENC   =       -70.79553554
  -exchange  EXHF       =         0.00000000
  -V(xc)+E(xc)   XCENC  =       -72.90653373
  PAW double counting   =       307.71595783     -166.55364183
  entropy T*S    EENTRO =         0.00000000
  eigenvalues    EBANDS =        37.81789889
  atomic energy  EATOM  =       826.37398168
  ---------------------------------------------------
  free energy    TOTEN  =       -33.22471360 eV

  energy without entropy =      -33.22471360  energy(sigma->0) =      -33.22471360


--------------------------------------------------------------------------------------------------------




 average (electrostatic) potential at core
  the test charge radii are     0.9892
  (the norm of the test charge is              1.0000)
       1 -83.2335       2 -83.2345       3 -83.2324       4 -83.2293       5 -83.2347
       6 -83.2352       7 -83.2363       8 -83.2377
 
 
 
 E-fermi :   6.0508     XC(G=0):  -9.1363     alpha+bet :-11.7379


 k-point   1 :       0.0000    0.0000    0.0000
  band No.  band energies     occupation 
      1      -5.9520      2.00000
      2      -1.8808      2.00000
      3      -1.8734      2.00000
      4      -1.8673      2.00000
      5      -1.8643      2.00000
      6      -1.8618      2.00000
      7      -1.8509      2.00000
      8       3.0428      2.00000
      9       3.0463      2.00000
     10       3.0493      2.00000
     11       3.0502      2.00000
     12       3.0525      2.00000
     13       3.0565      2.00000
     14       5.9141      2.00000
     15       5.9210      2.00000
     16       5.9267      2.00000
     17       6.5792      0.00000
     18       6.5849      0.00000
     19       6.5905      0.00000
     20       6.5935      0.00000
     21       6.5960      0.00000
     22       6.6012      0.00000
     23       8.3754      0.00000
     24       8.3788      0.00000
     25       8.3829      0.00000
     26       9.0526      0.00000
     27      13.6116      0.00000
     28      13.6117      0.00000
     29      13.8104      0.00000
     30      15.8159      0.00000
     31      15.8242      0.00000
     32      15.8253      0.00000
     33      15.8278      0.00000
     34      15.8298      0.00000
     35      15.8372      0.00000
     36      16.9454      0.00000
     37      16.9476      0.00000
     38      16.9544      0.00000
     39      16.9680      0.00000
     40      16.9763      0.00000
     41      16.9821      0.00000
     42      16.9866      0.00000
     43      16.9928      0.00000
     44      17.0006      0.00000
     45      18.7005      0.00000
     46      18.7154      0.00000
     47      18.7290      0.00000
     48      18.7323      0.00000


--------------------------------------------------------------------------------------------------------


 soft charge-density along one line, spin component           1
         0         1         2         3         4         5         6         7         8         9
 total charge-density along one line
 
 pseudopotential strength for first ion, spin component:           1
 18.598  -0.001   0.000   0.000   0.000   0.000   0.000   0.000
 -0.001   0.006   0.000   0.000   0.000   0.000   0.000   0.000
  0.000   0.000   4.224   0.000   0.000  -0.005   0.000   0.000
  0.000   0.000   0.000   4.224   0.000   0.000  -0.005   0.000
  0.000   0.000   0.000   0.000   4.224   0.000   0.000  -0.005
  0.000   0.000  -0.005   0.000   0.000   0.005   0.000   0.000
  0.000   0.000   0.000  -0.005   0.000   0.000   0.005   0.000
  0.000   0.000   0.000   0.000  -0.005   0.000   0.000   0.005
 total augmentation occupancy for first ion, spin component:           1
  1.320  -1.086   0.001  -0.003   0.002  -0.002   0.002  -0.003
 -1.086   1.011   0.000   0.000   0.000   0.002  -0.002   0.002
  0.001   0.000   1.123   0.002  -0.002  -0.800  -0.002   0.002
 -0.003   0.000   0.002   1.124   0.001  -0.002  -0.801  -0.001
  0.002   0.000  -0.002   0.001   1.122   0.002  -0.001  -0.799
 -0.002   0.002  -0.800  -0.002   0.002   0.646   0.002  -0.002
  0.002  -0.002  -0.002  -0.801  -0.001   0.002   0.647   0.001
 -0.003   0.002   0.002  -0.001  -0.799  -0.002   0.001   0.646


----------------------------------------- Iteration    1(  10)  ---------------------------------------


    POTLOK:  cpu time    0.02: real time    0.02
    SETDIJ:  cpu time    0.02: real time    0.02
    EDDIAG:  cpu time    0.02: real time    0.02
  RMM-DIIS:  cpu time    0.04: real time    0.04
    ORTHCH:  cpu time    0.01: real time    0.01
       DOS:  cpu time    0.00: real time    0.00
    CHARGE:  cpu time    0.02: real time    0.02
    MIXING:  cpu time    0.00: real time    0.00
    --------------------------------------------
      LOOP:  cpu time    0.14: real time    0.15

 eigenvalue-minimisations  :   104
 total energy-change (2. order) :-0.1856993E-03  (-0.2290441E-04)
 number of electron      31.9999999 magnetization 
 augmentation part       -1.7273562 magnetization 

 Broyden mixing:
  rms(total) = 0.41211E-03    rms(broyden)= 0.41164E-03
  rms(prec ) = 0.85343E-03
  weight for this iteration     100.00

 eigenvalues of (default mixing * dielectric matrix)
  average eigenvalue GAMMA=   2.0383
  3.0838  2.6191  2.1571  0.9793  1.3521

 Free energy of the ion-electron system (eV)
  ---------------------------------------------------
  alpha Z        PSCENC =        12.68944982
  Ewald energy   TEWEN  =      -907.56629071
  -1/2 Hartree   DENC   =       -70.84566507
  -exchange  EXHF       =         0.00000000
  -V(xc)+E(xc)   XCENC  =       -72.90947906
  PAW double counting   =       307.79868344     -166.64226701
  entropy T*S    EENTRO =         0.00000000
  eigenvalues    EBANDS =        37.87668763
  atomic energy  EATOM  =       826.37398168
  ---------------------------------------------------
  free energy    TOTEN  =       -33.22489930 eV

  energy without entropy =      -33.22489930  energy(sigma->0) =      -33.22489930


--------------------------------------------------------------------------------------------------------




 average (electrostatic) potential at core
  the test charge radii are     0.9892
  (the norm of the test charge is              1.0000)
       1 -83.2254       2 -83.2263       3 -83.2246       4 -83.2223       5 -83.2263
       6 -83.2268       7 -83.2275       8 -83.2287
 
 
 
 E-fermi :   6.0551     XC(G=0):  -9.1309     alpha+bet :-11.7379


 k-point   1 :       0.0000    0.0000    0.0000
  band No.  band energies     occupation 
      1      -5.9496      2.00000
      2      -1.8786      2.00000
      3      -1.8713      2.00000
      4      -1.8654      2.00000
      5      -1.8624      2.00000
      6      -1.8600      2.00000
      7      -1.8493      2.00000
      8       3.0446      2.00000
      9       3.0479      2.00000
     10       3.0509      2.00000
     11       3.0518      2.00000
     12       3.0539      2.00000
     13       3.0580      2.00000
     14       5.9162      2.00000
     15       5.9230      2.00000
     16       5.9287      2.00000
     17       6.5843      0.00000
     18       6.5900      0.00000
     19       6.5956      0.00000
     20       6.5986      0.00000
     21       6.6011      0.00000
     22       6.6064      0.00000
     23       8.3763      0.00000
     24       8.3797      0.00000
     25       8.3838      0.00000
     26       9.0561      0.00000
     27      13.6116      0.00000
     28      13.6117      0.00000
     29      13.8259      0.00000
     30      15.8177      0.00000
     31      15.8259      0.00000
     32      15.8270      0.00000
     33      15.8295      0.00000
     34      15.8316      0.00000
     35      15.8389      0.00000
     36      16.9493      0.00000
     37      16.9514      0.00000
     38      16.9583      0.00000
     39      16.9708      0.00000
     40      16.9790      0.00000
     41      16.9847      0.00000
     42      16.9892      0.00000
     43      16.9954      0.00000
     44      17.0030      0.00000
     45      18.7077      0.00000
     46      18.7227      0.00000
     47      18.7355      0.00000
     48      18.7388      0.00000


--------------------------------------------------------------------------------------------------------


 soft charge-density along one line, spin component           1
         0         1         2         3         4         5         6         7         8         9
 total charge-density along one line
 
 pseudopotential strength for first ion, spin component:           1
 18.597  -0.001   0.000   0.000   0.000   0.000   0.000   0.000
 -0.001   0.006   0.000   0.000   0.000   0.000   0.000   0.000
  0.000   0.000   4.224   0.000   0.000  -0.005   0.000   0.000
  0.000   0.000   0.000   4.224   0.000   0.000  -0.005   0.000
  0.000   0.000   0.000   0.000   4.224   0.000   0.000  -0.005
  0.000   0.000  -0.005   0.000   0.000   0.005   0.000   0.000
  0.000   0.000   0.000  -0.005   0.000   0.000   0.005   0.000
  0.000   0.000   0.000   0.000  -0.005   0.000   0.000   0.005
 total augmentation occupancy for first ion, spin component:           1
  1.320  -1.086   0.001  -0.003   0.002  -0.002   0.002  -0.003
 -1.086   1.011   0.000  -0.001   0.000   0.002  -0.002   0.002
  0.001   0.000   1.122   0.002  -0.002  -0.801  -0.002   0.002
 -0.003  -0.001   0.002   1.124   0.001  -0.002  -0.802  -0.001
  0.002   0.000  -0.002   0.001   1.121   0.002  -0.001  -0.800
 -0.002   0.002  -0.801  -0.002   0.002   0.647   0.002  -0.002
  0.002  -0.002  -0.002  -0.802  -0.001   0.002   0.648   0.001
 -0.003   0.002   0.002  -0.001  -0.800  -0.002   0.001   0.647


----------------------------------------- Iteration    1(  11)  ---------------------------------------


    POTLOK:  cpu time    0.02: real time    0.02
    SETDIJ:  cpu time    0.02: real time    0.02
    EDDIAG:  cpu time    0.02: real time    0.02
  RMM-DIIS:  cpu time    0.07: real time    0.07
    ORTHCH:  cpu time    0.01: real time    0.01
       DOS:  cpu time    0.00: real time    0.00
    CHARGE:  cpu time    0.02: real time    0.02
    MIXING:  cpu time    0.00: real time    0.00
    --------------------------------------------
      LOOP:  cpu time    0.16: real time    0.17

 eigenvalue-minimisations  :   116
 total energy-change (2. order) : 0.4401746E-05  (-0.2786994E-06)
 number of electron      31.9999999 magnetization 
 augmentation part       -1.7274462 magnetization 

 Broyden mixing:
  rms(total) = 0.16648E-03    rms(broyden)= 0.16642E-03
  rms(prec ) = 0.32940E-03
  weight for this iteration     100.00

 eigenvalues of (default mixing * dielectric matrix)
  average eigenvalue GAMMA=   1.9582
  3.2041  2.6996  2.1718  1.7131  0.9805  0.9805

 Free energy of the ion-electron system (eV)
  ---------------------------------------------------
  alpha Z        PSCENC =        12.68944982
  Ewald energy   TEWEN  =      -907.56629071
  -1/2 Hartree   DENC   =       -70.82765902
  -exchange  EXHF       =         0.00000000
  -V(xc)+E(xc)   XCENC  =       -72.91096230
  PAW double counting   =       307.73223683     -166.57332692
  entropy T*S    EENTRO =         0.00000000
  eigenvalues    EBANDS =        37.85767574
  atomic energy  EATOM  =       826.37398168
  ---------------------------------------------------
  free energy    TOTEN  =       -33.22489489 eV

  energy without entropy =      -33.22489489  energy(sigma->0) =      -33.22489489


--------------------------------------------------------------------------------------------------------




 average (electrostatic) potential at core
  the test charge radii are     0.9892
  (the norm of the test charge is              1.0000)
       1 -83.2272       2 -83.2281       3 -83.2262       4 -83.2234       5 -83.2283
       6 -83.2288       7 -83.2297       8 -83.2311
 
 
 
 E-fermi :   6.0547     XC(G=0):  -9.1314     alpha+bet :-11.7379


 k-point   1 :       0.0000    0.0000    0.0000
  band No.  band energies     occupation 
      1      -5.9502      2.00000
      2      -1.8794      2.00000
      3      -1.8720      2.00000
      4      -1.8660      2.00000
      5      -1.8630      2.00000
      6      -1.8605      2.00000
      7      -1.8497      2.00000
      8       3.0439      2.00000
      9       3.0473      2.00000
     10       3.0504      2.00000
     11       3.0513      2.00000
     12       3.0535      2.00000
     13       3.0575      2.00000
     14       5.9155      2.00000
     15       5.9223      2.00000
     16       5.9280      2.00000
     17       6.5838      0.00000
     18       6.5895      0.00000
     19       6.5951      0.00000
     20       6.5981      0.00000
     21       6.6005      0.00000
     22       6.6058      0.00000
     23       8.3758      0.00000
     24       8.3792      0.00000
     25       8.3834      0.00000
     26       9.0552      0.00000
     27      13.6114      0.00000
     28      13.6114      0.00000
     29      13.8248      0.00000
     30      15.8170      0.00000
     31      15.8253      0.00000
     32      15.8264      0.00000
     33      15.8289      0.00000
     34      15.8309      0.00000
     35      15.8383      0.00000
     36      16.9489      0.00000
     37      16.9510      0.00000
     38      16.9579      0.00000
     39      16.9701      0.00000
     40      16.9784      0.00000
     41      16.9841      0.00000
     42      16.9886      0.00000
     43      16.9948      0.00000
     44      17.0025      0.00000
     45      18.7093      0.00000
     46      18.7242      0.00000
     47      18.7353      0.00000
     48      18.7385      0.00000


--------------------------------------------------------------------------------------------------------


 soft charge-density along one line, spin component           1
         0         1         2         3         4         5         6         7         8         9
 total charge-density along one line
 
 pseudopotential strength for first ion, spin component:           1
 18.597  -0.001   0.000   0.000   0.000   0.000   0.000   0.000
 -0.001   0.006   0.000   0.000   0.000   0.000   0.000   0.000
  0.000   0.000   4.224   0.000   0.000  -0.005   0.000   0.000
  0.000   0.000   0.000   4.224   0.000   0.000  -0.005   0.000
  0.000   0.000   0.000   0.000   4.224   0.000   0.000  -0.005
  0.000   0.000  -0.005   0.000   0.000   0.005   0.000   0.000
  0.000   0.000   0.000  -0.005   0.000   0.000   0.005   0.000
  0.000   0.000   0.000   0.000  -0.005   0.000   0.000   0.005
 total augmentation occupancy for first ion, spin component:           1
  1.320  -1.086   0.001  -0.003   0.002  -0.002   0.002  -0.003
 -1.086   1.011   0.000   0.000   0.000   0.002  -0.002   0.002
  0.001   0.000   1.122   0.002  -0.002  -0.801  -0.002   0.002
 -0.003   0.000   0.002   1.124   0.001  -0.002  -0.802  -0.001
  0.002   0.000  -0.002   0.001   1.121   0.002  -0.001  -0.800
 -0.002   0.002  -0.801  -0.002   0.002   0.647   0.002  -0.002
  0.002  -0.002  -0.002  -0.802  -0.001   0.002   0.648   0.001
 -0.003   0.002   0.002  -0.001  -0.800  -0.002   0.001   0.647


----------------------------------------- Iteration    1(  12)  ---------------------------------------


    POTLOK:  cpu time    0.02: real time    0.02
    SETDIJ:  cpu time    0.02: real time    0.02
    EDDIAG:  cpu time    0.02: real time    0.02
  RMM-DIIS:  cpu time    0.05: real time    0.05
    ORTHCH:  cpu time    0.01: real time    0.01
       DOS:  cpu time    0.00: real time    0.00
    CHARGE:  cpu time    0.02: real time    0.02
    MIXING:  cpu time    0.00: real time    0.00
    --------------------------------------------
      LOOP:  cpu time    0.15: real time    0.15

 eigenvalue-minimisations  :   124
 total energy-change (2. order) :-0.7792449E-06  (-0.6468217E-07)
 number of electron      31.9999999 magnetization 
 augmentation part       -1.7274320 magnetization 

 Broyden mixing:
  rms(total) = 0.59952E-04    rms(broyden)= 0.59913E-04
  rms(prec ) = 0.85820E-04
  weight for this iteration     100.00

 eigenvalues of (default mixing * dielectric matrix)
  average eigenvalue GAMMA=   2.0010
  3.2206  2.7369  2.4456  2.0431  1.6001  0.9995  0.9609

 Free energy of the ion-electron system (eV)
  ---------------------------------------------------
  alpha Z        PSCENC =        12.68944982
  Ewald energy   TEWEN  =      -907.56629071
  -1/2 Hartree   DENC   =       -70.83234809
  -exchange  EXHF       =         0.00000000
  -V(xc)+E(xc)   XCENC  =       -72.91087882
  PAW double counting   =       307.74122581     -166.58257600
  entropy T*S    EENTRO =         0.00000000
  eigenvalues    EBANDS =        37.86254064
  atomic energy  EATOM  =       826.37398168
  ---------------------------------------------------
  free energy    TOTEN  =       -33.22489567 eV

  energy without entropy =      -33.22489567  energy(sigma->0) =      -33.22489567


--------------------------------------------------------------------------------------------------------




 average (electrostatic) potential at core
  the test charge radii are     0.9892
  (the norm of the test charge is              1.0000)
       1 -83.2266       2 -83.2276       3 -83.2256       4 -83.2227       5 -83.2277
       6 -83.2283       7 -83.2292       8 -83.2306
 
 
 
 E-fermi :   6.0551     XC(G=0):  -9.1311     alpha+bet :-11.7379


 k-point   1 :       0.0000    0.0000    0.0000
  band No.  band energies     occupation 
      1      -5.9500      2.00000
      2      -1.8793      2.00000
      3      -1.8719      2.00000
      4      -1.8658      2.00000
      5      -1.8628      2.00000
      6      -1.8603      2.00000
      7      -1.8495      2.00000
      8       3.0440      2.00000
      9       3.0474      2.00000
     10       3.0505      2.00000
     11       3.0514      2.00000
     12       3.0536      2.00000
[...]
    MIXING:  cpu time    0.00: real time    0.00
    --------------------------------------------
      LOOP:  cpu time    0.16: real time    0.16

 Broyden mixing:
  rms(total) = 0.65329E-02    rms(broyden)= 0.65327E-02
  rms(prec ) = 0.11214E-01
  weight for this iteration     100.00

 eigenvalues of (default mixing * dielectric matrix)
  average eigenvalue GAMMA=   2.0523
  3.0075  2.4596  1.0908  1.6514

 Free energy of the ion-electron system (eV)
  ---------------------------------------------------
  -1/2 Hartree   DENC   =        -4.61330056
  -V(xc)+E(xc)   XCENC  =         0.94982058
  PAW double counting   =         3.09517165       -3.14444601
  entropy T*S    EENTRO =         0.00000000
  eigenvalues    EBANDS =       -24.52753224
  ---------------------------------------------------
  free energy    TOTEN  =       -28.24028658 eV

  energy without entropy =      -28.24028658


----------------------------------------- Iteration    3(   7)  ---------------------------------------


   POT+DIJ:  cpu time    0.09: real time    0.09
    HAMIL1:  cpu time    0.01: real time    0.01
    LRDIAG:  cpu time    0.01: real time    0.01
    LRDIIS:  cpu time    0.02: real time    0.02
    LRDIAG:  cpu time    0.01: real time    0.01
    MIXING:  cpu time    0.00: real time    0.00
    --------------------------------------------
      LOOP:  cpu time    0.16: real time    0.17

 Broyden mixing:
  rms(total) = 0.53464E-03    rms(broyden)= 0.53370E-03
  rms(prec ) = 0.99366E-03
  weight for this iteration     100.00

 eigenvalues of (default mixing * dielectric matrix)
  average eigenvalue GAMMA=   1.9121
  3.0836  2.4397  1.6617  1.0956  1.2800

 Free energy of the ion-electron system (eV)
  ---------------------------------------------------
  -1/2 Hartree   DENC   =        -4.62680293
  -V(xc)+E(xc)   XCENC  =         0.95755373
  PAW double counting   =         3.06487080       -3.11369607
  entropy T*S    EENTRO =         0.00000000
  eigenvalues    EBANDS =       -24.56087564
  ---------------------------------------------------
  free energy    TOTEN  =       -28.27895012 eV

  energy without entropy =      -28.27895012


----------------------------------------- Iteration    3(   8)  ---------------------------------------


   POT+DIJ:  cpu time    0.08: real time    0.08
    HAMIL1:  cpu time    0.00: real time    0.00
    LRDIAG:  cpu time    0.01: real time    0.01
    LRDIIS:  cpu time    0.02: real time    0.02
    LRDIAG:  cpu time    0.01: real time    0.01
    MIXING:  cpu time    0.00: real time    0.00
    --------------------------------------------
      LOOP:  cpu time    0.16: real time    0.16

 Broyden mixing:
  rms(total) = 0.28163E-03    rms(broyden)= 0.28153E-03
  rms(prec ) = 0.40981E-03
  weight for this iteration     100.00

 eigenvalues of (default mixing * dielectric matrix)
  average eigenvalue GAMMA=   1.9332
  3.0886  2.4541  2.2249  1.6655  1.1127  1.0533

 Free energy of the ion-electron system (eV)
  ---------------------------------------------------
  -1/2 Hartree   DENC   =        -4.62926675
  -V(xc)+E(xc)   XCENC  =         0.95829414
  PAW double counting   =         3.06772795       -3.11660244
  entropy T*S    EENTRO =         0.00000000
  eigenvalues    EBANDS =       -24.56234381
  ---------------------------------------------------
  free energy    TOTEN  =       -28.28219091 eV

  energy without entropy =      -28.28219091


----------------------------------------- Iteration    3(   9)  ---------------------------------------


   POT+DIJ:  cpu time    0.08: real time    0.08
    HAMIL1:  cpu time    0.00: real time    0.01
    LRDIAG:  cpu time    0.01: real time    0.01
    LRDIIS:  cpu time    0.02: real time    0.02
    LRDIAG:  cpu time    0.01: real time    0.01
    MIXING:  cpu time    0.00: real time    0.00
    --------------------------------------------
      LOOP:  cpu time    0.16: real time    0.16

 Broyden mixing:
  rms(total) = 0.87057E-04    rms(broyden)= 0.87031E-04
  rms(prec ) = 0.13594E-03
  weight for this iteration     100.00

 eigenvalues of (default mixing * dielectric matrix)
  average eigenvalue GAMMA=   1.8924
  3.1829  2.7524  2.4259  1.6699  1.2090  1.0919  0.9148

 Free energy of the ion-electron system (eV)
  ---------------------------------------------------
  -1/2 Hartree   DENC   =        -4.62900473
  -V(xc)+E(xc)   XCENC  =         0.95823657
  PAW double counting   =         3.07022623       -3.11914358
  entropy T*S    EENTRO =         0.00000000
  eigenvalues    EBANDS =       -24.56257174
  ---------------------------------------------------
  free energy    TOTEN  =       -28.28225725 eV

  energy without entropy =      -28.28225725


----------------------------------------- Iteration    3(  10)  ---------------------------------------


   POT+DIJ:  cpu time    0.08: real time    0.08
    HAMIL1:  cpu time    0.01: real time    0.01
    LRDIAG:  cpu time    0.01: real time    0.01
    LRDIIS:  cpu time    0.02: real time    0.02
    LRDIAG:  cpu time    0.01: real time    0.01
    MIXING:  cpu time    0.00: real time    0.00
    --------------------------------------------
      LOOP:  cpu time    0.16: real time    0.16

 Broyden mixing:
  rms(total) = 0.11210E-04    rms(broyden)= 0.11193E-04
  rms(prec ) = 0.19612E-04
  weight for this iteration     100.00

 eigenvalues of (default mixing * dielectric matrix)
  average eigenvalue GAMMA=   1.8440
  3.1973  2.7652  2.4420  1.6651  1.4915  0.9615  1.1407  1.0891

 Free energy of the ion-electron system (eV)
  ---------------------------------------------------
  -1/2 Hartree   DENC   =        -4.62910867
  -V(xc)+E(xc)   XCENC  =         0.95828024
  PAW double counting   =         3.07117863       -3.12011249
  entropy T*S    EENTRO =         0.00000000
  eigenvalues    EBANDS =       -24.56279687
  ---------------------------------------------------
  free energy    TOTEN  =       -28.28255916 eV

  energy without entropy =      -28.28255916


----------------------------------------- Iteration    3(  11)  ---------------------------------------


   POT+DIJ:  cpu time    0.08: real time    0.08
    HAMIL1:  cpu time    0.00: real time    0.01
    LRDIAG:  cpu time    0.01: real time    0.01
    LRDIIS:  cpu time    0.02: real time    0.02
    LRDIAG:  cpu time    0.01: real time    0.01
    MIXING:  cpu time    0.00: real time    0.00
    --------------------------------------------
      LOOP:  cpu time    0.16: real time    0.17

 Broyden mixing:
  rms(total) = 0.41633E-05    rms(broyden)= 0.41609E-05
  rms(prec ) = 0.63487E-05
  weight for this iteration     100.00

 eigenvalues of (default mixing * dielectric matrix)
  average eigenvalue GAMMA=   1.8707
  3.2015  2.7937  2.4301  2.2540  1.6667  1.3679  0.9716  1.1087  1.0425

 Free energy of the ion-electron system (eV)
  ---------------------------------------------------
  -1/2 Hartree   DENC   =        -4.62911630
  -V(xc)+E(xc)   XCENC  =         0.95827836
  PAW double counting   =         3.07117217       -3.12010590
  entropy T*S    EENTRO =         0.00000000
  eigenvalues    EBANDS =       -24.56278191
  ---------------------------------------------------
  free energy    TOTEN  =       -28.28255359 eV

  energy without entropy =      -28.28255359


----------------------------------------- Iteration    3(  12)  ---------------------------------------


   POT+DIJ:  cpu time    0.08: real time    0.08
    HAMIL1:  cpu time    0.00: real time    0.01
    LRDIAG:  cpu time    0.01: real time    0.01
    LRDIIS:  cpu time    0.02: real time    0.02
    LRDIAG:  cpu time    0.01: real time    0.01
    MIXING:  cpu time    0.00: real time    0.00
    --------------------------------------------
      LOOP:  cpu time    0.16: real time    0.16

 Broyden mixing:
  rms(total) = 0.10625E-05    rms(broyden)= 0.10619E-05
  rms(prec ) = 0.15886E-05
  weight for this iteration     100.00

 eigenvalues of (default mixing * dielectric matrix)
  average eigenvalue GAMMA=   1.8393
  3.2059  2.8046  2.4563  2.3969  1.6689  0.9842  1.0364  1.1092  1.3653  1.3653

 Free energy of the ion-electron system (eV)
  ---------------------------------------------------
  -1/2 Hartree   DENC   =        -4.62911714
  -V(xc)+E(xc)   XCENC  =         0.95827829
  PAW double counting   =         3.07109653       -3.12002899
  entropy T*S    EENTRO =         0.00000000
  eigenvalues    EBANDS =       -24.56278360
  ---------------------------------------------------
  free energy    TOTEN  =       -28.28255491 eV

  energy without entropy =      -28.28255491


----------------------------------------- Iteration    3(  13)  ---------------------------------------


   POT+DIJ:  cpu time    0.09: real time    0.09
    HAMIL1:  cpu time    0.00: real time    0.01
    LRDIAG:  cpu time    0.01: real time    0.01
    LRDIIS:  cpu time    0.02: real time    0.02
    LRDIAG:  cpu time    0.01: real time    0.01
    MIXING:  cpu time    0.00: real time    0.00
    --------------------------------------------
      LOOP:  cpu time    0.17: real time    0.17

 Broyden mixing:
  rms(total) = 0.34688E-06    rms(broyden)= 0.34679E-06
  rms(prec ) = 0.56059E-06
  weight for this iteration     100.00

 eigenvalues of (default mixing * dielectric matrix)
  average eigenvalue GAMMA=   1.8211
  3.2096  2.8148  2.6081  2.4344  1.6644  1.7749  1.2865  0.9889  0.9889  1.1499
  1.1118

 Free energy of the ion-electron system (eV)
  ---------------------------------------------------
  -1/2 Hartree   DENC   =        -4.62911805
  -V(xc)+E(xc)   XCENC  =         0.95827836
  PAW double counting   =         3.07107847       -3.12001062
  entropy T*S    EENTRO =         0.00000000
  eigenvalues    EBANDS =       -24.56278340
  ---------------------------------------------------
  free energy    TOTEN  =       -28.28255524 eV

  energy without entropy =      -28.28255524


------------------------ aborting loop because EDIFF is reached ----------------------------------------


 change of polarisation eV/A/(eV/A) component  3 :    -0.073     0.133    50.525
 dielectric tensor                  component  3 :    -0.081     0.147    56.861


--------------------------------------------------------------------------------------------------------


    FORLOC:  cpu time    0.00: real time    0.00
    FORNL :  cpu time    0.09: real time    0.10
    STRESS:  cpu time    0.31: real time    0.31
    FORCOR:  cpu time    0.02: real time    0.02
    FORLOC:  cpu time    0.00: real time    0.00
    FORNL :  cpu time    0.10: real time    0.10
    STRESS:  cpu time    0.32: real time    0.32
    FORCOR:  cpu time    0.02: real time    0.02
    FORNLD:  cpu time    0.01: real time    0.01

 PIEZOELECTRIC TENSOR FIELD DIRECTION 3  (e Angst)
 -----------------------------------------------------------------------------
     0.00642 -0.00228 -0.00228           ( -0.00002  0.00000 -0.00001)
    -0.00228 -0.00055 -0.00098           (  0.00000 -0.00001  0.00000)
    -0.00228 -0.00098  0.00636           ( -0.00001  0.00000  0.00000)

 PIEZOELECTRIC TENSOR FIELD DIRECTION 3  (C/m^2)
 -----------------------------------------------------------------------------
     0.00063 -0.00022 -0.00022
    -0.00022 -0.00005 -0.00010
    -0.00022 -0.00010  0.00062


      POSITION         DIRECTION 3           BORN EFFECTIVE CHARGE    (rigid.aug.   ionic)
 -----------------------------------------------------------------------------------------
      0.00204      5.46998      5.46945    -0.05527  0.16294 -5.80591 (  0.21593  4.00000)
      1.36748      1.36695      1.36757     0.14354  0.02623 -5.80100 (  0.21593  4.00000)
      2.73445      2.73507      5.46614     0.03811  0.10120 -5.82170 (  0.21591  4.00000)
      4.10257      4.09864      1.36997     0.17324 -0.01265 -5.87865 (  0.21589  4.00000)
      2.73114      0.00247      2.73577     0.05371 -0.10983 -5.74995 (  0.21593  4.00000)
      4.10497      1.36827      4.10258    -0.13568  0.00405 -5.73436 (  0.21594  4.00000)
      0.00077      2.73508      2.73848    -0.03518 -0.17106 -5.72562 (  0.21594  4.00000)
      1.36758      4.10598      4.10008    -0.16425 -0.03622 -5.69312 (  0.21596  4.00000)
 -----------------------------------------------------------------------------------------
    total drift (improves with k-points):   0.01822 -0.03535-46.21031




--------------------------------------------------------------------------------------------------------


  LATTYP: Found a simple cubic cell.
 ALAT       =     5.4700000000
  
  Lattice vectors:
  
 A1 = (   5.4700000000,   0.0000000000,   0.0000000000)
 A2 = (   0.0000000000,   5.4700000000,   0.0000000000)
 A3 = (   0.0000000000,   0.0000000000,   5.4700000000)


Analysis of symmetry for initial positions (statically):
=====================================================================
 Subroutine PRICEL returns:
 Original cell was already a primitive cell.
 

 Routine SETGRP: Setting up the symmetry group for a 
 simple cubic supercell.


 Subroutine GETGRP returns: Found  1 space group operations
 (whereof  1 operations were pure point group operations)
 out of a pool of 48 trial point group operations.


The static configuration has the point symmetry C_1 .


Analysis of symmetry for dynamics (positions and initial velocities):
=====================================================================
 Subroutine PRICEL returns:
 Original cell was already a primitive cell.
 

 Routine SETGRP: Setting up the symmetry group for a 
 simple cubic supercell.


 Subroutine GETGRP returns: Found  1 space group operations
 (whereof  1 operations were pure point group operations)
 out of a pool of 48 trial point group operations.


The dynamic configuration has the point symmetry C_1 .


 MACROSCOPIC STATIC DIELECTRIC TENSOR (including local field effects in DFT)
 ------------------------------------------------------
          56.877526     0.004328    -0.081159
           0.004329    56.869840     0.146942
          -0.081159     0.146940    56.861228
 ------------------------------------------------------



--------------------------------------------------------------------------------------------------------


  LATTYP: Found a simple cubic cell.
 ALAT       =     5.4700000000
  
  Lattice vectors:
  
 A1 = (   5.4700000000,   0.0000000000,   0.0000000000)
 A2 = (   0.0000000000,   5.4700000000,   0.0000000000)
 A3 = (   0.0000000000,   0.0000000000,   5.4700000000)


Analysis of symmetry for initial positions (statically):
=====================================================================
 Subroutine PRICEL returns:
 Original cell was already a primitive cell.
 

 Routine SETGRP: Setting up the symmetry group for a 
 simple cubic supercell.


 Subroutine GETGRP returns: Found  1 space group operations
 (whereof  1 operations were pure point group operations)
 out of a pool of 48 trial point group operations.


The static configuration has the point symmetry C_1 .


Analysis of symmetry for dynamics (positions and initial velocities):
=====================================================================
 Subroutine PRICEL returns:
 Original cell was already a primitive cell.
 

 Routine SETGRP: Setting up the symmetry group for a 
 simple cubic supercell.


 Subroutine GETGRP returns: Found  1 space group operations
 (whereof  1 operations were pure point group operations)
 out of a pool of 48 trial point group operations.


The dynamic configuration has the point symmetry C_1 .
 
 KPOINTS: Automatic mesh                          

Automatic generation of k-mesh.
Space group operators:
 irot       det(A)        alpha          n_x          n_y          n_z        tau_x        tau_y        tau_z
    1     1.000000     0.000001     1.000000     0.000000     0.000000     0.000000     0.000000     0.000000
 
 Subroutine IBZKPT returns following result:
 ===========================================
 
 Found      1 irreducible k-points:
 
 Following reciprocal coordinates:
            Coordinates               Weight
  0.000000  0.000000  0.000000      1.000000
 
 Following cartesian coordinates:
            Coordinates               Weight
  0.000000  0.000000  0.000000      1.000000
 


--------------------------------------------------------------------------------------------------------




 MACROSCOPIC STATIC DIELECTRIC TENSOR (including local field effects in DFT)
 ------------------------------------------------------
          56.877526     0.004328    -0.081159
           0.004329    56.869840     0.146942
          -0.081159     0.146940    56.861228
 ------------------------------------------------------


 PIEZOELECTRIC TENSOR  for field in x, y, z        (e  Angst)
          XX          YY          ZZ          XY          YZ          ZX
  --------------------------------------------------------------------------------
  x    -0.00875    -0.00265     0.00834     0.00976     0.00022     0.00302
  y     0.00277     0.00201    -0.02084    -0.00895     0.00063     0.00283
  z     0.00642    -0.00055     0.00636    -0.00228    -0.00098    -0.00228

 PIEZOELECTRIC TENSOR  for field in x, y, z        (C/m^2)
          XX          YY          ZZ          XY          YZ          ZX
  --------------------------------------------------------------------------------
  x    -0.00086    -0.00026     0.00082     0.00096     0.00002     0.00030
  y     0.00027     0.00020    -0.00204    -0.00088     0.00006     0.00028
  z     0.00063    -0.00005     0.00062    -0.00022    -0.00010    -0.00022
 
 BORN EFFECTIVE CHARGES (in e, cummulative output)
 -------------------------------------------------
 ion    1
    1    -5.77734     0.05423     0.00561
    2     0.00096    -5.78625    -0.23519
    3    -0.05527     0.16294    -5.80591
 ion    2
    1    -5.75033     0.07821    -0.21713
    2    -0.04407    -5.76609    -0.02172
    3     0.14354     0.02623    -5.80100
 ion    3
    1    -5.80891    -0.05610    -0.01399
    2    -0.00442    -5.80011    -0.18021
    3     0.03811     0.10120    -5.82170
 ion    4
    1    -5.87758    -0.07666    -0.16562
    2     0.04797    -5.86316     0.02915
    3     0.17324    -0.01265    -5.87865
 ion    5
    1    -5.78335     0.00877    -0.00178
    2    -0.02397    -5.77247     0.16775
    3     0.05371    -0.10983    -5.74995
 ion    6
    1    -5.78577    -0.00972     0.21978
    2     0.00309    -5.75201    -0.03540
    3    -0.13568     0.00405    -5.73436
 ion    7
    1    -5.73443    -0.00212     0.02211
    2     0.02926    -5.74373     0.22505
    3    -0.03518    -0.17106    -5.72562
 ion    8
    1    -5.69547     0.00228     0.16937
    2    -0.00998    -5.72741     0.01525
    3    -0.16425    -0.03622    -5.69312


--------------------------------------------------------------------------------------------------------


     LOOP+:  cpu time   20.42: real time   20.84
    4ORBIT:  cpu time    0.00: real time    0.00

 total amount of memory used by VASP on root node    32224. kBytes
========================================================================

   base      :      30000. kBytes
   nonl-proj :        202. kBytes
   fftplans  :        782. kBytes
   grid      :       1198. kBytes
   one-center:         24. kBytes
   wavefun   :         18. kBytes
 
  
  
 General timing and accounting informations for this job:
 ========================================================
  
                  Total CPU time used (sec):       21.643
                            User time (sec):       16.513
                          System time (sec):        5.129
                         Elapsed time (sec):       24.352
  
                   Maximum memory used (kb):       65912.
                   Average memory used (kb):           0.
  
                          Minor page faults:       204720
                          Major page faults:            0
                 Voluntary context switches:         1536
