 vasp.5.3.3 18Dez12 (build Jan  9 2014 12:00:49) complex                        
  
 executed on             LinuxIFC date 2014.01.29  10:09:55
 running on   48 total cores
 distrk:  each k-point on   48 cores,    1 groups
 distr:  one band on NCORES_PER_BAND=   1 cores,   48 groups


--------------------------------------------------------------------------------------------------------


 INCAR:
 POTCAR:    PAW Si                                

 ----------------------------------------------------------------------------- 
|                                                                             |
|           W    W    AA    RRRRR   N    N  II  N    N   GGGG   !!!           |
|           W    W   A  A   R    R  NN   N  II  NN   N  G    G  !!!           |
|           W    W  A    A  R    R  N N  N  II  N N  N  G       !!!           |
|           W WW W  AAAAAA  RRRRR   N  N N  II  N  N N  G  GGG   !            |
|           WW  WW  A    A  R   R   N   NN  II  N   NN  G    G                |
|           W    W  A    A  R    R  N    N  II  N    N   GGGG   !!!           |
|                                                                             |
|      For optimal performance we recommend that you set                      |
|        NPAR = 4 - approx SQRT( number of cores)                             |
|      (number of cores/NPAR must be integer)                                 |
|      This setting will greatly improve the performance of VASP for DFT.     |
|      The default NPAR=number of cores might be grossly inefficient          |
|      on modern multi-core architectures or massively parallel machines.     |
|      Do your own testing.                                                   |
|      Unfortunately you need to use the default for hybrid, GW and RPA       |
|      calculations.                                                          |
|                                                                             |
 ----------------------------------------------------------------------------- 

 POTCAR:    PAW Si                                
   VRHFIN =Si: s2p2                                                             
   LEXCH  = 91                                                                  
   EATOM  =   103.3076 eV,    7.5929 Ry                                         
                                                                                
   TITEL  = PAW Si                                                              
   LULTRA =        F    use ultrasoft PP ?                                      
   IUNSCR =        1    unscreen: 0-lin 1-nonlin 2-no                           
   RPACOR =    1.500    partial core radius                                     
   POMASS =   28.085; ZVAL   =    4.000    mass and valenz                      
   RCORE  =    1.900    outmost cutoff radius                                   
   RWIGS  =    2.480; RWIGS  =    1.312    wigner-seitz radius (au A)           
   ENMAX  =  245.435; ENMIN  =  184.076 eV                                      
   ICORE  =        2    local potential                                         
   LCOR   =        T    correct aug charges                                     
   LPAW   =        T    paw PP                                                  
   EAUG   =  322.069                                                            
   DEXC   =    -.001                                                            
   RMAX   =    2.943    core radius for proj-oper                               
   RAUG   =    1.300    factor for augmentation sphere                          
   RDEP   =    1.993    core radius for depl-charge                             
   QCUT   =   -4.247; QGAM   =    8.494    optimization parameters              
                                                                                
   Description                                                                  
     l     E      TYP  RCUT    TYP  RCUT                                        
     0   .000     23  1.900                                                     
     0   .000     23  1.900                                                     
     1   .000     23  1.900                                                     
     1   .000     23  1.900                                                     
     2   .000      7  1.900                                                     
  local pseudopotential read in
  partial core-charges read in
  atomic valenz-charges read in
  non local Contribution for L=           0  read in
    real space projection operators read in
  non local Contribution for L=           0  read in
    real space projection operators read in
  non local Contribution for L=           1  read in
    real space projection operators read in
  non local Contribution for L=           1  read in
    real space projection operators read in
    PAW grid and wavefunctions read in
 
   number of l-projection  operators is LMAX  =           4
   number of lm-projection operators is LMMAX =           8
 
  PAW Si                                :
 energy of atom  1       EATOM= -103.3076
 kinetic energy error for atom=    0.0109 (will be added to EATOM!!)
 
 
 POSCAR: OUTCAR.0019.+1.out 1.0e-02              
  positions in cartesian coordinates
  No initial velocities read in
 exchange correlation table for  LEXCH =        7
   RHO(1)=    0.500       N(1)  =     2000
   RHO(2)=  100.500       N(2)  =     4000

 VTST: version 3.0c, (01/09/14)

 CHAIN: initializing optimizer
 
 OPT: Using VASP Dynamics algorithm
 CHAIN: Read ICHAIN            0
 
 POSCAR: OUTCAR.0019.+1.out 1.0e-02              
  positions in cartesian coordinates
  No initial velocities read in
 


--------------------------------------------------------------------------------------------------------


 ion  position               nearest neighbor table
   1  0.000  0.000  1.000-   8 2.36   4 2.37   6 2.37   2 2.37
   2  0.250  0.250  0.251-   5 2.37   7 2.37   1 2.37   3 2.37
   3  0.500  0.501  0.000-   8 2.37   4 2.37   6 2.37   2 2.37
   4  0.751  0.750  0.250-   1 2.37   7 2.37   3 2.37   5 2.37
   5  0.500  0.000  0.500-   2 2.37   6 2.37   8 2.37   4 2.37
   6  0.750  0.250  0.750-   7 2.37   5 2.37   1 2.37   3 2.37
   7  0.000  0.500  0.501-   6 2.37   2 2.37   4 2.37   8 2.37
   8  0.250  0.751  0.750-   1 2.36   3 2.37   5 2.37   7 2.37
 
  LATTYP: Found a simple cubic cell.
 ALAT       =     5.4700000000
  
  Lattice vectors:
  
 A1 = (   5.4700000000,   0.0000000000,   0.0000000000)
 A2 = (   0.0000000000,   5.4700000000,   0.0000000000)
 A3 = (   0.0000000000,   0.0000000000,   5.4700000000)


Analysis of symmetry for initial positions (statically):
=====================================================================
 Subroutine PRICEL returns:
 Original cell was already a primitive cell.
 

 Routine SETGRP: Setting up the symmetry group for a 
 simple cubic supercell.


 Subroutine GETGRP returns: Found  1 space group operations
 (whereof  1 operations were pure point group operations)
 out of a pool of 48 trial point group operations.


The static configuration has the point symmetry C_1 .


Analysis of symmetry for dynamics (positions and initial velocities):
=====================================================================
 Subroutine PRICEL returns:
 Original cell was already a primitive cell.
 

 Routine SETGRP: Setting up the symmetry group for a 
 simple cubic supercell.


 Subroutine GETGRP returns: Found  1 space group operations
 (whereof  1 operations were pure point group operations)
 out of a pool of 48 trial point group operations.


The dynamic configuration has the point symmetry C_1 .


 irot  :   1
 --------------------------------------------------------------------
 isymop:   1   0   0
           0   1   0
           0   0   1

 gtrans:     0.0000000     0.0000000     0.0000000

 ptrans:     0.0000000     0.0000000     0.0000000
 rotmap:
 (   1->   1)  (   2->   2)  (   3->   3)  (   4->   4)  (   5->   5) 
 (   6->   6)  (   7->   7)  (   8->   8) 
 
 
 KPOINTS: Automatic mesh                          

Automatic generation of k-mesh.
Space group operators:
 irot       det(A)        alpha          n_x          n_y          n_z        tau_x        tau_y        tau_z
    1     1.000000     0.000001     1.000000     0.000000     0.000000     0.000000     0.000000     0.000000
 
 Subroutine IBZKPT returns following result:
 ===========================================
 
 Found      1 irreducible k-points:
 
 Following reciprocal coordinates:
            Coordinates               Weight
  0.000000  0.000000  0.000000      1.000000
 
 Following cartesian coordinates:
            Coordinates               Weight
  0.000000  0.000000  0.000000      1.000000
 
 
 Subroutine IBZKPT_HF returns following result:
 ==============================================
 
 Found      1 k-points in 1st BZ
 the following      1 k-points will be used (e.g. in the exchange kernel)
 Following reciprocal coordinates:   # in IRBZ
  0.000000  0.000000  0.000000       1 t-inv F


--------------------------------------------------------------------------------------------------------




 Dimension of arrays:
   k-points           NKPTS =      1   k-points in BZ     NKDIM =      1   number of bands    NBANDS=     48
   number of dos      NEDOS =    301   number of ions     NIONS =      8
   non local maximal  LDIM  =      4   non local SUM 2l+1 LMDIM =      8
   total plane-waves  NPLWV =  21952
   max r-space proj   IRMAX =      1   max aug-charges    IRDMAX=  36071
   dimension x,y,z NGX =    28 NGY =   28 NGZ =   28
   dimension x,y,z NGXF=    56 NGYF=   56 NGZF=   56
   support grid    NGXF=   112 NGYF=  112 NGZF=  112
   ions per type =               8
 NGX,Y,Z   is equivalent  to a cutoff of   8.51,  8.51,  8.51 a.u.
 NGXF,Y,Z  is equivalent  to a cutoff of  17.02, 17.02, 17.02 a.u.


 I would recommend the setting:
   dimension x,y,z NGX =    19 NGY =   19 NGZ =   19
 SYSTEM =  NAPTHA04                                
 POSCAR =  OUTCAR.0019.+1.out 1.0e-02              

 Startparameter for this run:
   NWRITE =      3    write-flag & timer
   PREC   = normal    normal or accurate (medium, high low for compatibility)
   ISTART =      0    job   : 0-new  1-cont  2-samecut
   ICHARG =      2    charge: 1-file 2-atom 10-const
   ISPIN  =      1    spin polarized calculation?
   LNONCOLLINEAR =      F non collinear calculations
   LSORBIT =      F    spin-orbit coupling
   INIWAV =      1    electr: 0-lowe 1-rand  2-diag
   LASPH  =      F    aspherical Exc in radial PAW
   METAGGA=      F    non-selfconsistent MetaGGA calc.

 Electronic Relaxation 1
   ENCUT  =  200.0 eV  14.70 Ry    3.83 a.u.   6.31  6.31  6.31*2*pi/ulx,y,z
   ENINI  =  200.0     initial cutoff
   ENAUG  =  322.1 eV  augmentation charge cutoff
   NELM   =     60;   NELMIN=  2; NELMDL= -5     # of ELM steps 
   EDIFF  = 0.1E-07   stopping-criterion for ELM
   LREAL  =      F    real-space projection
   NLSPLINE    = F    spline interpolate recip. space projectors
   LCOMPAT=      F    compatible to vasp.4.4
   GGA_COMPAT  = T    GGA compatible to vasp.4.4-vasp.4.6
   LMAXPAW     = -100 max onsite density
   LMAXMIX     =    2 max onsite mixed and CHGCAR
   VOSKOWN=      0    Vosko Wilk Nusair interpolation
   ROPT   =    0.00000
 Ionic relaxation
   EDIFFG = 0.1E-06   stopping-criterion for IOM
   NSW    =      0    number of steps for IOM
   NBLOCK =      1;   KBLOCK =      1    inner block; outer block 
   IBRION =     -1    ionic relax: 0-MD 1-quasi-New 2-CG
   NFREE  =      0    steps in history (QN), initial steepest desc. (CG)
   ISIF   =      2    stress and relaxation
   IWAVPR =     10    prediction:  0-non 1-charg 2-wave 3-comb
   ISYM   =      2    0-nonsym 1-usesym 2-fastsym
   LCORR  =      T    Harris-Foulkes like correction to forces

   POTIM  = 0.5000    time-step for ionic-motion
   TEIN   =    0.0    initial temperature
   TEBEG  =    0.0;   TEEND  =   0.0 temperature during run
   SMASS  =  -3.00    Nose mass-parameter (am)
   estimated Nose-frequenzy (Omega)   =  0.10E-29 period in steps =****** mass=  -0.684E-27a.u.
   SCALEE = 1.0000    scale energy and forces
   NPACO  =    256;   APACO  = 16.0  distance and # of slots for P.C.
   PSTRESS=    0.0 pullay stress

  Mass of Ions in am
   POMASS =  28.09
  Ionic Valenz
   ZVAL   =   4.00
  Atomic Wigner-Seitz radii
   RWIGS  =  -1.00
  virtual crystal weights 
   VCA    =   1.00
   NELECT =      32.0000    total number of electrons
   NUPDOWN=      -1.0000    fix difference up-down

 DOS related values:
   EMIN   =  10.00;   EMAX   =-10.00  energy-range for DOS
   EFERMI =   0.00
   ISMEAR =     0;   SIGMA  =   0.02  broadening in eV -4-tet -1-fermi 0-gaus

 Electronic relaxation 2 (details)
   IALGO  =     68    algorithm
   LDIAG  =      T    sub-space diagonalisation (order eigenvalues)
   LSUBROT=      T    optimize rotation matrix (better conditioning)
   TURBO    =      0    0=normal 1=particle mesh
   IRESTART =      0    0=no restart 2=restart with 2 vectors
   NREBOOT  =      0    no. of reboots
   NMIN     =      0    reboot dimension
   EREF     =   0.00    reference energy to select bands
   IMIX   =      4    mixing-type and parameters
     AMIX     =   0.40;   BMIX     =  1.00
     AMIX_MAG =   1.60;   BMIX_MAG =  1.00
     AMIN     =   0.10
     WC   =   100.;   INIMIX=   1;  MIXPRE=   1;  MAXMIX= -45

 Intra band minimization:
   WEIMIN = 0.0000     energy-eigenvalue tresh-hold
   EBREAK =  0.52E-10  absolut break condition
   DEPER  =   0.30     relativ break condition  

   TIME   =   0.40     timestep for ELM

  volume/ion in A,a.u.               =      20.46       138.06
  Fermi-wavevector in a.u.,A,eV,Ry     =   0.950176  1.795573 12.283814  0.902835
  Thomas-Fermi vector in A             =   2.078528
 
 Write flags
   LWAVE  =      F    write WAVECAR
   LCHARG =      F    write CHGCAR
   LVTOT  =      F    write LOCPOT, total local potential
   LVHAR  =      F    write LOCPOT, Hartree potential only
   LELF   =      F    write electronic localiz. function (ELF)
   LORBIT =      0    0 simple, 1 ext, 2 COOP (PROOUT)


 Dipole corrections
   LMONO  =      F    monopole corrections only (constant potential shift)
   LDIPOL =      F    correct potential (dipole corrections)
   IDIPOL =      0    1-x, 2-y, 3-z, 4-all directions 
   EPSILON=  1.0000000 bulk dielectric constant

 Exchange correlation treatment:
   GGA     =    --    GGA type
   LEXCH   =     7    internal setting for exchange type
   VOSKOWN=      0    Vosko Wilk Nusair interpolation
   LHFCALC =     F    Hartree Fock is set to
   LHFONE  =     F    Hartree Fock one center treatment
   AEXX    =    0.0000 exact exchange contribution

 Linear response parameters
   LEPSILON=     T    determine dielectric tensor
   LRPA    =     F    only Hartree local field effects (RPA)
   LNABLA  =     F    use nabla operator in PAW spheres
   LVEL    =     F    velocity operator in full k-point grid
   LINTERFAST=   F  fast interpolation
   KINTER  =     0    interpolate to denser k-point grid
   CSHIFT  =0.1000    complex shift for real part using Kramers Kronig
   OMEGAMAX=  -1.0    maximum frequency
   DEG_THRESHOLD= 0.2000000E-02 threshold for treating states as degnerate
   RTIME   =    0.100 relaxation time in fs

 Orbital magnetization related:
   ORBITALMAG=     F  switch on orbital magnetization
   LCHIMAG   =     F  perturbation theory with respect to B field
   DQ        =  0.001000  dq finite difference perturbation B field



--------------------------------------------------------------------------------------------------------


 Static calculation
 charge density and potential will be updated during run
 non-spin polarized calculation
 RMM-DIIS sequential band-by-band and
  variant of blocked Davidson during initial phase
 perform sub-space diagonalisation
    before iterative eigenvector-optimisation
 modified Broyden-mixing scheme, WC =      100.0
 initial mixing is a Kerker type mixing with AMIX =  0.4000 and BMIX =      1.0000
 Hartree-type preconditioning will be used
 using additional bands           32
 reciprocal scheme for non local part
 use partial core corrections
 calculate Harris-corrections to forces 
   (improved forces if not selfconsistent)
 use gradient corrections 
 use of overlap-Matrix (Vanderbilt PP)
 Gauss-broadening in eV      SIGMA  =   0.02


--------------------------------------------------------------------------------------------------------


  energy-cutoff  :      200.00
  volume of cell :      163.67
      direct lattice vectors                 reciprocal lattice vectors
     5.470000000  0.000000000  0.000000000     0.182815356  0.000000000  0.000000000
     0.000000000  5.470000000  0.000000000     0.000000000  0.182815356  0.000000000
     0.000000000  0.000000000  5.470000000     0.000000000  0.000000000  0.182815356

  length of vectors
     5.470000000  5.470000000  5.470000000     0.182815356  0.182815356  0.182815356


 
 k-points in units of 2pi/SCALE and weight: Automatic mesh                          
   0.00000000  0.00000000  0.00000000       1.000
 
 k-points in reciprocal lattice and weights: Automatic mesh                          
   0.00000000  0.00000000  0.00000000       1.000
 
 position of ions in fractional coordinates (direct lattice) 
   0.00039976  0.00000164  0.99981060
   0.25000164  0.24981060  0.25075646
   0.49981060  0.50075646  0.00029630
   0.75075646  0.75029630  0.25006972
   0.50029630  0.00006972  0.50014092
   0.75006972  0.25014092  0.75001425
   0.00014092  0.50001425  0.50064124
   0.25001425  0.75064124  0.75044441
 
 position of ions in cartesian coordinates  (Angst):
   0.00218668  0.00000899  5.46896400
   1.36750899  1.36646400  1.37163783
   2.73396400  2.73913783  0.00162076
   4.10663783  4.10412076  1.36788135
   2.73662076  0.00038135  2.73577083
   4.10288135  1.36827083  4.10257797
   0.00077083  2.73507797  2.73850760
   1.36757797  4.10600760  4.10493092
 


--------------------------------------------------------------------------------------------------------


 k-point  1 :   0.0000 0.0000 0.0000  plane waves:    1021

 maximum and minimum number of plane-waves per node :      1021     1021

 maximum number of plane-waves:      1021
 maximum index in each direction: 
   IXMAX=    6   IYMAX=    6   IZMAX=    6
   IXMIN=   -6   IYMIN=   -6   IZMIN=   -6

 NGX is ok and might be reduce to  26
 NGY is ok and might be reduce to  26
 NGZ is ok and might be reduce to  26

 serial   3D FFT for wavefunctions
 parallel 3D FFT for charge:
    minimum data exchange during FFTs selected (reduces bandwidth)


 total amount of memory used by VASP on root node    32224. kBytes
========================================================================

   base      :      30000. kBytes
   nonl-proj :        202. kBytes
   fftplans  :        782. kBytes
   grid      :       1198. kBytes
   one-center:         24. kBytes
   wavefun   :         18. kBytes
 
 Broyden mixing: mesh for mixing (old mesh)
   NGX = 13   NGY = 13   NGZ = 13
  (NGX  = 56   NGY  = 56   NGZ  = 56)
  gives a total of   2197 points

 initial charge density was supplied:
 charge density of overlapping atoms calculated
 number of electron      32.0000000 magnetization 
 keeping initial charge density in first step


--------------------------------------------------------------------------------------------------------


 Maximum index for augmentation-charges         1782 (set IRDMAX)


--------------------------------------------------------------------------------------------------------


 First call to EWALD:  gamma=   0.324
 Maximum number of real-space cells 3x 3x 3
 Maximum number of reciprocal cells 3x 3x 3

 FEWALD executed in parallel
    FEWALD:  cpu time    0.00: real time    0.00


----------------------------------------- Iteration    1(   1)  ---------------------------------------


    POTLOK:  cpu time    0.03: real time    0.03
    SETDIJ:  cpu time    0.02: real time    0.02
     EDDAV:  cpu time    0.39: real time    0.40
       DOS:  cpu time    0.00: real time    0.00
    --------------------------------------------
      LOOP:  cpu time    0.45: real time    0.46

 eigenvalue-minimisations  :    96
 total energy-change (2. order) :-0.1014297E+02  (-0.7956310E+03)
 number of electron      32.0000000 magnetization 
 augmentation part       32.0000000 magnetization 

 Free energy of the ion-electron system (eV)
  ---------------------------------------------------
  alpha Z        PSCENC =        12.68944982
  Ewald energy   TEWEN  =      -907.56730410
  -1/2 Hartree   DENC   =       -45.63616483
  -exchange  EXHF       =         0.00000000
  -V(xc)+E(xc)   XCENC  =       -76.79672223
  PAW double counting   =       265.93453375     -123.69690146
  entropy T*S    EENTRO =        -0.00021412
  eigenvalues    EBANDS =        38.55636685
  atomic energy  EATOM  =       826.37398168
  ---------------------------------------------------
  free energy    TOTEN  =       -10.14297465 eV

  energy without entropy =      -10.14276053  energy(sigma->0) =      -10.14286759


--------------------------------------------------------------------------------------------------------




 average (electrostatic) potential at core
  the test charge radii are     0.9892
  (the norm of the test charge is              1.0000)
       1 -84.3543       2 -84.3482       3 -84.3452       4 -84.3496       5 -84.3520
       6 -84.3495       7 -84.3511       8 -84.3552
 
 
 
 E-fermi :   6.6083     XC(G=0):  -9.5533     alpha+bet :-11.7379


 k-point   1 :       0.0000    0.0000    0.0000
  band No.  band energies     occupation 
      1      -6.5896      2.00000
      2      -2.4182      2.00000
      3      -2.2467      2.00000
      4      -2.1162      2.00000
      5      -2.0276      2.00000
      6      -1.8786      2.00000
      7      -1.6800      2.00000
      8       2.7405      2.00000
      9       2.8485      2.00000
     10       2.9920      2.00000
     11       3.1621      2.00000
     12       3.3463      2.00000
     13       4.0807      2.00000
     14       6.1381      2.00000
     15       6.3616      2.00000
     16       6.5651      1.99773
     17       6.6515      0.00227
     18       6.8104      0.00000
     19       6.9053      0.00000
     20       7.1725      0.00000
     21       7.3800      0.00000
     22       8.0397      0.00000
     23       8.9829      0.00000
     24       9.3783      0.00000
     25      10.4498      0.00000
     26      11.4492      0.00000
     27      13.5071      0.00000
     28      14.7702      0.00000
     29      16.5589      0.00000
     30      16.8929      0.00000
     31      17.3625      0.00000
     32      17.5825      0.00000
     33      17.9308      0.00000
     34      18.1292      0.00000
     35      18.5007      0.00000
     36      18.8749      0.00000
     37      19.3782      0.00000
     38      19.5066      0.00000
     39      19.8580      0.00000
     40      20.2610      0.00000
     41      21.1061      0.00000
     42      21.6912      0.00000
     43      22.1805      0.00000
     44      22.7709      0.00000
     45      23.8999      0.00000
     46      24.3988      0.00000
     47      24.8234      0.00000
     48      25.8358      0.00000


--------------------------------------------------------------------------------------------------------


 soft charge-density along one line, spin component           1
         0         1         2         3         4         5         6         7         8         9
 total charge-density along one line
 
 pseudopotential strength for first ion, spin component:           1
 18.662   0.000   0.000   0.000   0.000   0.000   0.000   0.000
  0.000   0.006   0.000   0.000   0.000   0.000   0.000   0.000
  0.000   0.000   4.216   0.000   0.000  -0.004   0.000   0.000
  0.000   0.000   0.000   4.216   0.000   0.000  -0.004   0.000
  0.000   0.000   0.000   0.000   4.216   0.000   0.000  -0.004
  0.000   0.000  -0.004   0.000   0.000   0.005   0.000   0.000
  0.000   0.000   0.000  -0.004   0.000   0.000   0.005   0.000
  0.000   0.000   0.000   0.000  -0.004   0.000   0.000   0.005
 total augmentation occupancy for first ion, spin component:           1
  2.000   0.000   0.000   0.000   0.000   0.000   0.000   0.000
  0.000   0.000   0.000   0.000   0.000   0.000   0.000   0.000
  0.000   0.000   0.667   0.000   0.000   0.000   0.000   0.000
  0.000   0.000   0.000   0.667   0.000   0.000   0.000   0.000
  0.000   0.000   0.000   0.000   0.667   0.000   0.000   0.000
  0.000   0.000   0.000   0.000   0.000   0.000   0.000   0.000
  0.000   0.000   0.000   0.000   0.000   0.000   0.000   0.000
  0.000   0.000   0.000   0.000   0.000   0.000   0.000   0.000


----------------------------------------- Iteration    1(   2)  ---------------------------------------


     EDDAV:  cpu time    0.96: real time    0.97
       DOS:  cpu time    0.00: real time    0.00
    --------------------------------------------
      LOOP:  cpu time    0.97: real time    0.97

 eigenvalue-minimisations  :   144
 total energy-change (2. order) :-0.2430784E+02  (-0.2430566E+02)
 number of electron      32.0000000 magnetization 
 augmentation part       32.0000000 magnetization 

 Free energy of the ion-electron system (eV)
  ---------------------------------------------------
  alpha Z        PSCENC =        12.68944982
  Ewald energy   TEWEN  =      -907.56730410
  -1/2 Hartree   DENC   =       -45.63616483
  -exchange  EXHF       =         0.00000000
  -V(xc)+E(xc)   XCENC  =       -76.79672223
  PAW double counting   =       265.93453375     -123.69690146
  entropy T*S    EENTRO =         0.00000000
  eigenvalues    EBANDS =        14.24830825
  atomic energy  EATOM  =       826.37398168
  ---------------------------------------------------
  free energy    TOTEN  =       -34.45081913 eV

  energy without entropy =      -34.45081913  energy(sigma->0) =      -34.45081913


--------------------------------------------------------------------------------------------------------




 average (electrostatic) potential at core
  the test charge radii are     0.9892
  (the norm of the test charge is              1.0000)
       1 -84.3543       2 -84.3482       3 -84.3452       4 -84.3496       5 -84.3520
       6 -84.3495       7 -84.3511       8 -84.3552
 
 
 
 E-fermi :   5.2500     XC(G=0):  -9.5533     alpha+bet :-11.7379


 k-point   1 :       0.0000    0.0000    0.0000
  band No.  band energies     occupation 
      1      -6.6371      2.00000
      2      -2.6456      2.00000
      3      -2.6322      2.00000
      4      -2.6296      2.00000
      5      -2.6281      2.00000
      6      -2.6250      2.00000
      7      -2.6145      2.00000
      8       2.3738      2.00000
      9       2.3785      2.00000
     10       2.3807      2.00000
     11       2.3830      2.00000
     12       2.3859      2.00000
     13       2.3940      2.00000
     14       5.0713      2.00000
     15       5.0791      2.00000
     16       5.0898      2.00000
     17       6.1467      0.00000
     18       6.1508      0.00000
     19       6.1551      0.00000
     20       6.1579      0.00000
     21       6.1613      0.00000
     22       6.1681      0.00000
     23       7.8525      0.00000
     24       7.8579      0.00000
     25       7.8612      0.00000
     26       8.1266      0.00000
     27      13.2005      0.00000
     28      13.2620      0.00000
     29      13.2699      0.00000
     30      15.1029      0.00000
     31      15.1344      0.00000
     32      15.1665      0.00000
     33      15.2474      0.00000
     34      15.3149      0.00000
     35      15.6385      0.00000
     36      16.3698      0.00000
     37      16.4294      0.00000
     38      16.4499      0.00000
     39      16.5438      0.00000
     40      16.7172      0.00000
     41      16.7482      0.00000
     42      16.7693      0.00000
     43      16.8703      0.00000
     44      17.2392      0.00000
     45      17.9153      0.00000
     46      17.9522      0.00000
     47      17.9948      0.00000
     48      18.0186      0.00000


--------------------------------------------------------------------------------------------------------


 soft charge-density along one line, spin component           1
         0         1         2         3         4         5         6         7         8         9
 total charge-density along one line
 
 pseudopotential strength for first ion, spin component:           1
 18.662   0.000   0.000   0.000   0.000   0.000   0.000   0.000
  0.000   0.006   0.000   0.000   0.000   0.000   0.000   0.000
  0.000   0.000   4.216   0.000   0.000  -0.004   0.000   0.000
  0.000   0.000   0.000   4.216   0.000   0.000  -0.004   0.000
  0.000   0.000   0.000   0.000   4.216   0.000   0.000  -0.004
  0.000   0.000  -0.004   0.000   0.000   0.005   0.000   0.000
  0.000   0.000   0.000  -0.004   0.000   0.000   0.005   0.000
  0.000   0.000   0.000   0.000  -0.004   0.000   0.000   0.005
 total augmentation occupancy for first ion, spin component:           1
  2.000   0.000   0.000   0.000   0.000   0.000   0.000   0.000
  0.000   0.000   0.000   0.000   0.000   0.000   0.000   0.000
  0.000   0.000   0.667   0.000   0.000   0.000   0.000   0.000
  0.000   0.000   0.000   0.667   0.000   0.000   0.000   0.000
  0.000   0.000   0.000   0.000   0.667   0.000   0.000   0.000
  0.000   0.000   0.000   0.000   0.000   0.000   0.000   0.000
  0.000   0.000   0.000   0.000   0.000   0.000   0.000   0.000
  0.000   0.000   0.000   0.000   0.000   0.000   0.000   0.000


----------------------------------------- Iteration    1(   3)  ---------------------------------------


     EDDAV:  cpu time    0.39: real time    0.39
       DOS:  cpu time    0.00: real time    0.00
    --------------------------------------------
      LOOP:  cpu time    0.39: real time    0.39

 eigenvalue-minimisations  :    96
 total energy-change (2. order) :-0.1670017E+00  (-0.1670017E+00)
 number of electron      32.0000000 magnetization 
 augmentation part       32.0000000 magnetization 

 Free energy of the ion-electron system (eV)
  ---------------------------------------------------
  alpha Z        PSCENC =        12.68944982
  Ewald energy   TEWEN  =      -907.56730410
  -1/2 Hartree   DENC   =       -45.63616483
  -exchange  EXHF       =         0.00000000
  -V(xc)+E(xc)   XCENC  =       -76.79672223
  PAW double counting   =       265.93453375     -123.69690146
  entropy T*S    EENTRO =         0.00000000
  eigenvalues    EBANDS =        14.08130655
  atomic energy  EATOM  =       826.37398168
  ---------------------------------------------------
  free energy    TOTEN  =       -34.61782083 eV

  energy without entropy =      -34.61782083  energy(sigma->0) =      -34.61782083


--------------------------------------------------------------------------------------------------------




 average (electrostatic) potential at core
  the test charge radii are     0.9892
  (the norm of the test charge is              1.0000)
       1 -84.3543       2 -84.3482       3 -84.3452       4 -84.3496       5 -84.3520
       6 -84.3495       7 -84.3511       8 -84.3552
 
 
 
 E-fermi :   5.2115     XC(G=0):  -9.5533     alpha+bet :-11.7379


 k-point   1 :       0.0000    0.0000    0.0000
  band No.  band energies     occupation 
      1      -6.6372      2.00000
      2      -2.6479      2.00000
      3      -2.6348      2.00000
      4      -2.6324      2.00000
      5      -2.6297      2.00000
      6      -2.6263      2.00000
      7      -2.6171      2.00000
      8       2.3711      2.00000
      9       2.3762      2.00000
     10       2.3766      2.00000
     11       2.3774      2.00000
     12       2.3813      2.00000
     13       2.3834      2.00000
     14       5.0636      2.00000
     15       5.0664      2.00000
     16       5.0700      2.00000
     17       6.1431      0.00000
     18       6.1484      0.00000
     19       6.1509      0.00000
     20       6.1555      0.00000
     21       6.1589      0.00000
     22       6.1625      0.00000
     23       7.8477      0.00000
     24       7.8497      0.00000
     25       7.8512      0.00000
     26       8.1178      0.00000
     27      13.1845      0.00000
     28      13.1867      0.00000
     29      13.2693      0.00000
     30      15.0837      0.00000
     31      15.0885      0.00000
     32      15.0931      0.00000
     33      15.1093      0.00000
     34      15.1304      0.00000
     35      15.1821      0.00000
     36      16.3069      0.00000
     37      16.3309      0.00000
     38      16.3457      0.00000
     39      16.3738      0.00000
     40      16.4316      0.00000
     41      16.4874      0.00000
     42      16.7130      0.00000
     43      16.7157      0.00000
     44      16.8191      0.00000
     45      17.8854      0.00000
     46      17.8936      0.00000
     47      17.9219      0.00000
     48      17.9388      0.00000


--------------------------------------------------------------------------------------------------------


 soft charge-density along one line, spin component           1
         0         1         2         3         4         5         6         7         8         9
 total charge-density along one line
 
 pseudopotential strength for first ion, spin component:           1
 18.662   0.000   0.000   0.000   0.000   0.000   0.000   0.000
  0.000   0.006   0.000   0.000   0.000   0.000   0.000   0.000
  0.000   0.000   4.216   0.000   0.000  -0.004   0.000   0.000
  0.000   0.000   0.000   4.216   0.000   0.000  -0.004   0.000
  0.000   0.000   0.000   0.000   4.216   0.000   0.000  -0.004
  0.000   0.000  -0.004   0.000   0.000   0.005   0.000   0.000
  0.000   0.000   0.000  -0.004   0.000   0.000   0.005   0.000
  0.000   0.000   0.000   0.000  -0.004   0.000   0.000   0.005
 total augmentation occupancy for first ion, spin component:           1
  2.000   0.000   0.000   0.000   0.000   0.000   0.000   0.000
  0.000   0.000   0.000   0.000   0.000   0.000   0.000   0.000
  0.000   0.000   0.667   0.000   0.000   0.000   0.000   0.000
  0.000   0.000   0.000   0.667   0.000   0.000   0.000   0.000
  0.000   0.000   0.000   0.000   0.667   0.000   0.000   0.000
  0.000   0.000   0.000   0.000   0.000   0.000   0.000   0.000
  0.000   0.000   0.000   0.000   0.000   0.000   0.000   0.000
  0.000   0.000   0.000   0.000   0.000   0.000   0.000   0.000


----------------------------------------- Iteration    1(   4)  ---------------------------------------


     EDDAV:  cpu time    1.99: real time    1.99
       DOS:  cpu time    0.00: real time    0.00
    --------------------------------------------
      LOOP:  cpu time    1.99: real time    2.00

 eigenvalue-minimisations  :   192
 total energy-change (2. order) :-0.3542329E-03  (-0.3542329E-03)
 number of electron      32.0000000 magnetization 
 augmentation part       32.0000000 magnetization 

 Free energy of the ion-electron system (eV)
  ---------------------------------------------------
  alpha Z        PSCENC =        12.68944982
  Ewald energy   TEWEN  =      -907.56730410
  -1/2 Hartree   DENC   =       -45.63616483
  -exchange  EXHF       =         0.00000000
  -V(xc)+E(xc)   XCENC  =       -76.79672223
  PAW double counting   =       265.93453375     -123.69690146
  entropy T*S    EENTRO =         0.00000000
  eigenvalues    EBANDS =        14.08095231
  atomic energy  EATOM  =       826.37398168
  ---------------------------------------------------
  free energy    TOTEN  =       -34.61817506 eV

  energy without entropy =      -34.61817506  energy(sigma->0) =      -34.61817506


--------------------------------------------------------------------------------------------------------




 average (electrostatic) potential at core
  the test charge radii are     0.9892
  (the norm of the test charge is              1.0000)
       1 -84.3543       2 -84.3482       3 -84.3452       4 -84.3496       5 -84.3520
       6 -84.3495       7 -84.3511       8 -84.3552
 
 
 
 E-fermi :   5.1998     XC(G=0):  -9.5533     alpha+bet :-11.7379


 k-point   1 :       0.0000    0.0000    0.0000
  band No.  band energies     occupation 
      1      -6.6372      2.00000
      2      -2.6479      2.00000
      3      -2.6348      2.00000
      4      -2.6324      2.00000
      5      -2.6297      2.00000
      6      -2.6263      2.00000
      7      -2.6171      2.00000
      8       2.3711      2.00000
      9       2.3762      2.00000
     10       2.3766      2.00000
     11       2.3774      2.00000
     12       2.3812      2.00000
     13       2.3834      2.00000
     14       5.0636      2.00000
     15       5.0664      2.00000
     16       5.0699      2.00000
     17       6.1431      0.00000
     18       6.1484      0.00000
     19       6.1509      0.00000
     20       6.1555      0.00000
     21       6.1589      0.00000
     22       6.1625      0.00000
     23       7.8477      0.00000
     24       7.8496      0.00000
     25       7.8512      0.00000
     26       8.1178      0.00000
     27      13.1837      0.00000
     28      13.1838      0.00000
     29      13.2693      0.00000
     30      15.0755      0.00000
     31      15.0804      0.00000
     32      15.0848      0.00000
     33      15.0858      0.00000
     34      15.0875      0.00000
     35      15.0946      0.00000
     36      16.2954      0.00000
     37      16.3051      0.00000
     38      16.3080      0.00000
     39      16.3096      0.00000
     40      16.3208      0.00000
     41      16.3239      0.00000
     42      16.7022      0.00000
     43      16.7047      0.00000
     44      16.7062      0.00000
     45      17.8757      0.00000
     46      17.8819      0.00000
     47      17.8834      0.00000
     48      17.8911      0.00000


--------------------------------------------------------------------------------------------------------


 soft charge-density along one line, spin component           1
         0         1         2         3         4         5         6         7         8         9
 total charge-density along one line
 
 pseudopotential strength for first ion, spin component:           1
 18.662   0.000   0.000   0.000   0.000   0.000   0.000   0.000
  0.000   0.006   0.000   0.000   0.000   0.000   0.000   0.000
  0.000   0.000   4.216   0.000   0.000  -0.004   0.000   0.000
  0.000   0.000   0.000   4.216   0.000   0.000  -0.004   0.000
  0.000   0.000   0.000   0.000   4.216   0.000   0.000  -0.004
  0.000   0.000  -0.004   0.000   0.000   0.005   0.000   0.000
  0.000   0.000   0.000  -0.004   0.000   0.000   0.005   0.000
  0.000   0.000   0.000   0.000  -0.004   0.000   0.000   0.005
 total augmentation occupancy for first ion, spin component:           1
  2.000   0.000   0.000   0.000   0.000   0.000   0.000   0.000
  0.000   0.000   0.000   0.000   0.000   0.000   0.000   0.000
  0.000   0.000   0.667   0.000   0.000   0.000   0.000   0.000
  0.000   0.000   0.000   0.667   0.000   0.000   0.000   0.000
  0.000   0.000   0.000   0.000   0.667   0.000   0.000   0.000
  0.000   0.000   0.000   0.000   0.000   0.000   0.000   0.000
  0.000   0.000   0.000   0.000   0.000   0.000   0.000   0.000
  0.000   0.000   0.000   0.000   0.000   0.000   0.000   0.000


----------------------------------------- Iteration    1(   5)  ---------------------------------------


     EDDAV:  cpu time    0.38: real time    0.38
       DOS:  cpu time    0.00: real time    0.00
    CHARGE:  cpu time    0.02: real time    0.02
    MIXING:  cpu time    0.00: real time    0.01
    --------------------------------------------
      LOOP:  cpu time    0.41: real time    0.41

 eigenvalue-minimisations  :    96
 total energy-change (2. order) :-0.3052605E-08  (-0.3050297E-08)
 number of electron      31.9999999 magnetization 
 augmentation part       -1.8053333 magnetization 

 Broyden mixing:
  rms(total) = 0.79306E+00    rms(broyden)= 0.79301E+00
  rms(prec ) = 0.15229E+01
  weight for this iteration     100.00

 Free energy of the ion-electron system (eV)
  ---------------------------------------------------
  alpha Z        PSCENC =        12.68944982
  Ewald energy   TEWEN  =      -907.56730410
  -1/2 Hartree   DENC   =       -45.63616483
  -exchange  EXHF       =         0.00000000
  -V(xc)+E(xc)   XCENC  =       -76.79672223
  PAW double counting   =       265.93453375     -123.69690146
  entropy T*S    EENTRO =         0.00000000
  eigenvalues    EBANDS =        14.08095231
  atomic energy  EATOM  =       826.37398168
  ---------------------------------------------------
  free energy    TOTEN  =       -34.61817507 eV

  energy without entropy =      -34.61817507  energy(sigma->0) =      -34.61817507


--------------------------------------------------------------------------------------------------------




 average (electrostatic) potential at core
  the test charge radii are     0.9892
  (the norm of the test charge is              1.0000)
       1 -84.3543       2 -84.3482       3 -84.3452       4 -84.3496       5 -84.3520
       6 -84.3495       7 -84.3511       8 -84.3552
 
 
 
 E-fermi :   5.1958     XC(G=0):  -9.5533     alpha+bet :-11.7379


 k-point   1 :       0.0000    0.0000    0.0000
  band No.  band energies     occupation 
      1      -6.6372      2.00000
      2      -2.6479      2.00000
      3      -2.6348      2.00000
      4      -2.6324      2.00000
      5      -2.6297      2.00000
      6      -2.6263      2.00000
      7      -2.6171      2.00000
      8       2.3711      2.00000
      9       2.3762      2.00000
     10       2.3766      2.00000
     11       2.3774      2.00000
     12       2.3812      2.00000
     13       2.3834      2.00000
     14       5.0636      2.00000
     15       5.0664      2.00000
     16       5.0699      2.00000
     17       6.1431      0.00000
     18       6.1484      0.00000
     19       6.1509      0.00000
     20       6.1555      0.00000
     21       6.1589      0.00000
     22       6.1625      0.00000
     23       7.8477      0.00000
     24       7.8496      0.00000
     25       7.8512      0.00000
     26       8.1178      0.00000
     27      13.1837      0.00000
     28      13.1838      0.00000
     29      13.2693      0.00000
     30      15.0755      0.00000
     31      15.0803      0.00000
     32      15.0848      0.00000
     33      15.0857      0.00000
     34      15.0874      0.00000
     35      15.0946      0.00000
     36      16.2952      0.00000
     37      16.3046      0.00000
     38      16.3074      0.00000
     39      16.3094      0.00000
     40      16.3206      0.00000
     41      16.3236      0.00000
     42      16.7022      0.00000
     43      16.7045      0.00000
     44      16.7061      0.00000
     45      17.8693      0.00000
     46      17.8778      0.00000
     47      17.8807      0.00000
     48      17.8828      0.00000


--------------------------------------------------------------------------------------------------------


 soft charge-density along one line, spin component           1
         0         1         2         3         4         5         6         7         8         9
 total charge-density along one line
 
 pseudopotential strength for first ion, spin component:           1
 18.662   0.000   0.000   0.000   0.000   0.000   0.000   0.000
  0.000   0.006   0.000   0.000   0.000   0.000   0.000   0.000
  0.000   0.000   4.216   0.000   0.000  -0.004   0.000   0.000
  0.000   0.000   0.000   4.216   0.000   0.000  -0.004   0.000
  0.000   0.000   0.000   0.000   4.216   0.000   0.000  -0.004
  0.000   0.000  -0.004   0.000   0.000   0.005   0.000   0.000
  0.000   0.000   0.000  -0.004   0.000   0.000   0.005   0.000
  0.000   0.000   0.000   0.000  -0.004   0.000   0.000   0.005
 total augmentation occupancy for first ion, spin component:           1
  1.380  -1.053  -0.002  -0.001   0.001   0.002   0.001  -0.001
 -1.053   0.921   0.001   0.000   0.000  -0.003   0.000   0.001
 -0.002   0.001   1.164   0.000  -0.001  -0.758  -0.001   0.001
 -0.001   0.000   0.000   1.167  -0.001  -0.001  -0.760   0.002
  0.001   0.000  -0.001  -0.001   1.165   0.001   0.002  -0.759
  0.002  -0.003  -0.758  -0.001   0.001   0.570   0.001  -0.001
  0.001   0.000  -0.001  -0.760   0.002   0.001   0.572  -0.002
 -0.001   0.001   0.001   0.002  -0.759  -0.001  -0.002   0.570


----------------------------------------- Iteration    1(   6)  ---------------------------------------


    POTLOK:  cpu time    0.02: real time    0.02
    SETDIJ:  cpu time    0.02: real time    0.02
    EDDIAG:  cpu time    0.03: real time    0.03
  RMM-DIIS:  cpu time    0.02: real time    0.02
    ORTHCH:  cpu time    0.01: real time    0.01
       DOS:  cpu time    0.00: real time    0.00
    CHARGE:  cpu time    0.02: real time    0.02
    MIXING:  cpu time    0.00: real time    0.00
    --------------------------------------------
      LOOP:  cpu time    0.12: real time    0.13

 eigenvalue-minimisations  :    96
 total energy-change (2. order) : 0.1001714E+01  (-0.3197955E-01)
 number of electron      31.9999999 magnetization 
 augmentation part       -1.7684055 magnetization 

 Broyden mixing:
  rms(total) = 0.47400E+00    rms(broyden)= 0.47399E+00
  rms(prec ) = 0.91066E+00
  weight for this iteration     100.00

 eigenvalues of (default mixing * dielectric matrix)
  average eigenvalue GAMMA=   2.4573
  2.4573

 Free energy of the ion-electron system (eV)
  ---------------------------------------------------
  alpha Z        PSCENC =        12.68944982
  Ewald energy   TEWEN  =      -907.56730410
  -1/2 Hartree   DENC   =       -54.68276802
  -exchange  EXHF       =         0.00000000
  -V(xc)+E(xc)   XCENC  =       -75.44940644
  PAW double counting   =       286.06067759     -144.35898637
  entropy T*S    EENTRO =         0.00000000
  eigenvalues    EBANDS =        23.31789446
  atomic energy  EATOM  =       826.37398168
  ---------------------------------------------------
  free energy    TOTEN  =       -33.61646138 eV

  energy without entropy =      -33.61646138  energy(sigma->0) =      -33.61646138


--------------------------------------------------------------------------------------------------------




 average (electrostatic) potential at core
  the test charge radii are     0.9892
  (the norm of the test charge is              1.0000)
       1 -83.8346       2 -83.8317       3 -83.8301       4 -83.8323       5 -83.8335
       6 -83.8323       7 -83.8331       8 -83.8350
 
 
 
 E-fermi :   5.5481     XC(G=0):  -9.4504     alpha+bet :-11.7379


 k-point   1 :       0.0000    0.0000    0.0000
  band No.  band energies     occupation 
      1      -6.3787      2.00000
      2      -2.3466      2.00000
      3      -2.3354      2.00000
      4      -2.3332      2.00000
      5      -2.3311      2.00000
      6      -2.3281      2.00000
      7      -2.3203      2.00000
      8       2.6330      2.00000
      9       2.6374      2.00000
     10       2.6378      2.00000
     11       2.6385      2.00000
     12       2.6420      2.00000
     13       2.6437      2.00000
     14       5.3970      2.00000
     15       5.3998      2.00000
     16       5.4033      2.00000
     17       6.2587      0.00000
     18       6.2634      0.00000
     19       6.2657      0.00000
     20       6.2696      0.00000
     21       6.2726      0.00000
     22       6.2759      0.00000
     23       8.0550      0.00000
     24       8.0570      0.00000
     25       8.0586      0.00000
     26       8.4862      0.00000
     27      13.3050      0.00000
     28      13.3568      0.00000
     29      13.3569      0.00000
     30      15.3725      0.00000
     31      15.3766      0.00000
     32      15.3811      0.00000
     33      15.3819      0.00000
     34      15.3833      0.00000
     35      15.3899      0.00000
     36      16.5323      0.00000
     37      16.5411      0.00000
     38      16.5435      0.00000
     39      16.5453      0.00000
     40      16.5555      0.00000
     41      16.5582      0.00000
     42      16.7467      0.00000
     43      16.7491      0.00000
     44      16.7507      0.00000
     45      18.1577      0.00000
     46      18.1655      0.00000
     47      18.1707      0.00000
     48      18.1727      0.00000


--------------------------------------------------------------------------------------------------------


 soft charge-density along one line, spin component           1
         0         1         2         3         4         5         6         7         8         9
 total charge-density along one line
 
 pseudopotential strength for first ion, spin component:           1
 18.635  -0.001   0.000   0.000   0.000   0.000   0.000   0.000
 -0.001   0.006   0.000   0.000   0.000   0.000   0.000   0.000
  0.000   0.000   4.221   0.000   0.000  -0.004   0.000   0.000
  0.000   0.000   0.000   4.221   0.000   0.000  -0.004   0.000
  0.000   0.000   0.000   0.000   4.221   0.000   0.000  -0.004
  0.000   0.000  -0.004   0.000   0.000   0.005   0.000   0.000
  0.000   0.000   0.000  -0.004   0.000   0.000   0.005   0.000
  0.000   0.000   0.000   0.000  -0.004   0.000   0.000   0.005
 total augmentation occupancy for first ion, spin component:           1
  1.351  -1.092  -0.002  -0.001   0.001   0.003   0.001  -0.001
 -1.092   1.000   0.001   0.000   0.000  -0.003  -0.001   0.001
 -0.002   0.001   1.146   0.000  -0.001  -0.782  -0.001   0.001
 -0.001   0.000   0.000   1.149  -0.001  -0.001  -0.784   0.002
  0.001   0.000  -0.001  -0.001   1.146   0.001   0.002  -0.782
  0.003  -0.003  -0.782  -0.001   0.001   0.609   0.001  -0.001
  0.001  -0.001  -0.001  -0.784   0.002   0.001   0.609  -0.002
 -0.001   0.001   0.001   0.002  -0.782  -0.001  -0.002   0.609


----------------------------------------- Iteration    1(   7)  ---------------------------------------


    POTLOK:  cpu time    0.02: real time    0.02
    SETDIJ:  cpu time    0.02: real time    0.02
    EDDIAG:  cpu time    0.02: real time    0.02
  RMM-DIIS:  cpu time    0.02: real time    0.02
    ORTHCH:  cpu time    0.00: real time    0.01
       DOS:  cpu time    0.00: real time    0.00
    CHARGE:  cpu time    0.02: real time    0.02
    MIXING:  cpu time    0.00: real time    0.00
    --------------------------------------------
      LOOP:  cpu time    0.11: real time    0.11

 eigenvalue-minimisations  :    96
 total energy-change (2. order) : 0.4246690E+00  (-0.7388314E-01)
 number of electron      31.9999999 magnetization 
 augmentation part       -1.7214489 magnetization 

 Broyden mixing:
  rms(total) = 0.46248E-01    rms(broyden)= 0.46238E-01
  rms(prec ) = 0.78451E-01
  weight for this iteration     100.00

 eigenvalues of (default mixing * dielectric matrix)
  average eigenvalue GAMMA=   2.5301
  2.5301  2.5301

 Free energy of the ion-electron system (eV)
  ---------------------------------------------------
  alpha Z        PSCENC =        12.68944982
  Ewald energy   TEWEN  =      -907.56730410
  -1/2 Hartree   DENC   =       -70.51403834
  -exchange  EXHF       =         0.00000000
  -V(xc)+E(xc)   XCENC  =       -73.00922630
  PAW double counting   =       313.72492039     -172.73693987
  entropy T*S    EENTRO =         0.00000000
  eigenvalues    EBANDS =        37.84736434
  atomic energy  EATOM  =       826.37398168
  ---------------------------------------------------
  free energy    TOTEN  =       -33.19179238 eV

  energy without entropy =      -33.19179238  energy(sigma->0) =      -33.19179238


--------------------------------------------------------------------------------------------------------




 average (electrostatic) potential at core
  the test charge radii are     0.9892
  (the norm of the test charge is              1.0000)
       1 -83.1462       2 -83.1446       3 -83.1438       4 -83.1454       5 -83.1455
       6 -83.1457       7 -83.1456       8 -83.1473
 
 
 
 E-fermi :   6.0971     XC(G=0):  -9.2018     alpha+bet :-11.7379


 k-point   1 :       0.0000    0.0000    0.0000
  band No.  band energies     occupation 
      1      -5.9621      2.00000
      2      -1.8780      2.00000
      3      -1.8685      2.00000
      4      -1.8665      2.00000
      5      -1.8648      2.00000
      6      -1.8623      2.00000
      7      -1.8558      2.00000
      8       3.0462      2.00000
      9       3.0500      2.00000
     10       3.0506      2.00000
     11       3.0510      2.00000
     12       3.0544      2.00000
     13       3.0556      2.00000
     14       5.9217      2.00000
     15       5.9244      2.00000
     16       5.9278      2.00000
     17       6.5183      0.00000
     18       6.5224      0.00000
     19       6.5245      0.00000
     20       6.5276      0.00000
     21       6.5301      0.00000
     22       6.5330      0.00000
     23       8.3801      0.00000
     24       8.3822      0.00000
     25       8.3838      0.00000
     26       9.0452      0.00000
     27      13.6013      0.00000
     28      13.6204      0.00000
     29      13.6204      0.00000
     30      15.8233      0.00000
     31      15.8270      0.00000
     32      15.8310      0.00000
     33      15.8318      0.00000
     34      15.8330      0.00000
     35      15.8391      0.00000
     36      16.9014      0.00000
     37      16.9029      0.00000
     38      16.9054      0.00000
     39      16.9538      0.00000
     40      16.9608      0.00000
     41      16.9630      0.00000
     42      16.9645      0.00000
     43      16.9737      0.00000
     44      16.9766      0.00000
     45      18.6548      0.00000
     46      18.6641      0.00000
     47      18.6725      0.00000
     48      18.6757      0.00000


--------------------------------------------------------------------------------------------------------


 soft charge-density along one line, spin component           1
         0         1         2         3         4         5         6         7         8         9
 total charge-density along one line
 
 pseudopotential strength for first ion, spin component:           1
 18.597  -0.001   0.000   0.000   0.000   0.000   0.000   0.000
 -0.001   0.006   0.000   0.000   0.000   0.000   0.000   0.000
  0.000   0.000   4.227   0.000   0.000  -0.005   0.000   0.000
  0.000   0.000   0.000   4.227   0.000   0.000  -0.005   0.000
  0.000   0.000   0.000   0.000   4.227   0.000   0.000  -0.005
  0.000   0.000  -0.005   0.000   0.000   0.005   0.000   0.000
  0.000   0.000   0.000  -0.005   0.000   0.000   0.005   0.000
  0.000   0.000   0.000   0.000  -0.005   0.000   0.000   0.005
 total augmentation occupancy for first ion, spin component:           1
  1.315  -1.113  -0.002   0.000   0.001   0.003   0.001  -0.001
 -1.113   1.060   0.000   0.000   0.000  -0.003  -0.001   0.001
 -0.002   0.000   1.121   0.001   0.000  -0.805  -0.001   0.001
  0.000   0.000   0.001   1.124  -0.002  -0.001  -0.807   0.002
  0.001   0.000   0.000  -0.002   1.121   0.001   0.002  -0.805
  0.003  -0.003  -0.805  -0.001   0.001   0.652   0.001  -0.001
  0.001  -0.001  -0.001  -0.807   0.002   0.001   0.653  -0.002
 -0.001   0.001   0.001   0.002  -0.805  -0.001  -0.002   0.653


----------------------------------------- Iteration    1(   8)  ---------------------------------------


    POTLOK:  cpu time    0.02: real time    0.02
    SETDIJ:  cpu time    0.02: real time    0.02
    EDDIAG:  cpu time    0.02: real time    0.02
  RMM-DIIS:  cpu time    0.02: real time    0.02
    ORTHCH:  cpu time    0.00: real time    0.01
       DOS:  cpu time    0.00: real time    0.00
    CHARGE:  cpu time    0.02: real time    0.02
    MIXING:  cpu time    0.00: real time    0.00
    --------------------------------------------
      LOOP:  cpu time    0.11: real time    0.12

 eigenvalue-minimisations  :    96
 total energy-change (2. order) :-0.3198312E-01  (-0.2162050E-02)
 number of electron      31.9999999 magnetization 
 augmentation part       -1.7275419 magnetization 

 Broyden mixing:
  rms(total) = 0.74886E-02    rms(broyden)= 0.74881E-02
  rms(prec ) = 0.17954E-01
  weight for this iteration     100.00

 eigenvalues of (default mixing * dielectric matrix)
  average eigenvalue GAMMA=   2.1212
  1.2741  2.8650  2.2246

 Free energy of the ion-electron system (eV)
  ---------------------------------------------------
  alpha Z        PSCENC =        12.68944982
  Ewald energy   TEWEN  =      -907.56730410
  -1/2 Hartree   DENC   =       -70.39903333
  -exchange  EXHF       =         0.00000000
  -V(xc)+E(xc)   XCENC  =       -72.96565953
  PAW double counting   =       307.36282312     -166.19003858
  entropy T*S    EENTRO =         0.00000000
  eigenvalues    EBANDS =        37.47200543
  atomic energy  EATOM  =       826.37398168
  ---------------------------------------------------
  free energy    TOTEN  =       -33.22377550 eV

  energy without entropy =      -33.22377550  energy(sigma->0) =      -33.22377550


--------------------------------------------------------------------------------------------------------




 average (electrostatic) potential at core
  the test charge radii are     0.9892
  (the norm of the test charge is              1.0000)
       1 -83.2510       2 -83.2466       3 -83.2443       4 -83.2477       5 -83.2493
       6 -83.2478       7 -83.2488       8 -83.2521
 
 
 
 E-fermi :   6.0363     XC(G=0):  -9.1504     alpha+bet :-11.7379


 k-point   1 :       0.0000    0.0000    0.0000
  band No.  band energies     occupation 
      1      -5.9631      2.00000
      2      -1.8909      2.00000
      3      -1.8804      2.00000
      4      -1.8782      2.00000
      5      -1.8762      2.00000
      6      -1.8734      2.00000
      7      -1.8662      2.00000
      8       3.0343      2.00000
      9       3.0384      2.00000
     10       3.0390      2.00000
     11       3.0395      2.00000
     12       3.0432      2.00000
     13       3.0445      2.00000
     14       5.9056      2.00000
     15       5.9083      2.00000
     16       5.9117      2.00000
     17       6.5688      0.00000
     18       6.5731      0.00000
     19       6.5752      0.00000
     20       6.5786      0.00000
     21       6.5812      0.00000
     22       6.5843      0.00000
     23       8.3695      0.00000
     24       8.3715      0.00000
     25       8.3731      0.00000
     26       9.0381      0.00000
     27      13.6064      0.00000
     28      13.6065      0.00000
     29      13.7784      0.00000
     30      15.8083      0.00000
     31      15.8126      0.00000
     32      15.8162      0.00000
     33      15.8171      0.00000
     34      15.8184      0.00000
     35      15.8248      0.00000
     36      16.9382      0.00000
     37      16.9387      0.00000
     38      16.9424      0.00000
     39      16.9607      0.00000
     40      16.9670      0.00000
     41      16.9694      0.00000
     42      16.9708      0.00000
     43      16.9805      0.00000
     44      16.9839      0.00000
     45      18.6913      0.00000
     46      18.7019      0.00000
     47      18.7104      0.00000
     48      18.7143      0.00000


--------------------------------------------------------------------------------------------------------


 soft charge-density along one line, spin component           1
         0         1         2         3         4         5         6         7         8         9
 total charge-density along one line
 
 pseudopotential strength for first ion, spin component:           1
 18.599  -0.001   0.000   0.000   0.000   0.000   0.000   0.000
 -0.001   0.006   0.000   0.000   0.000   0.000   0.000   0.000
  0.000   0.000   4.224   0.000   0.000  -0.005   0.000   0.000
  0.000   0.000   0.000   4.224   0.000   0.000  -0.005   0.000
  0.000   0.000   0.000   0.000   4.224   0.000   0.000  -0.005
  0.000   0.000  -0.005   0.000   0.000   0.005   0.000   0.000
  0.000   0.000   0.000  -0.005   0.000   0.000   0.005   0.000
  0.000   0.000   0.000   0.000  -0.005   0.000   0.000   0.005
 total augmentation occupancy for first ion, spin component:           1
  1.320  -1.093  -0.002  -0.001   0.001   0.003   0.001  -0.001
 -1.093   1.023   0.001   0.000   0.000  -0.003  -0.001   0.001
 -0.002   0.001   1.123   0.001   0.000  -0.801  -0.001   0.001
 -0.001   0.000   0.001   1.125  -0.002  -0.001  -0.803   0.002
  0.001   0.000   0.000  -0.002   1.123   0.001   0.002  -0.801
  0.003  -0.003  -0.801  -0.001   0.001   0.647   0.001  -0.001
  0.001  -0.001  -0.001  -0.803   0.002   0.001   0.649  -0.002
 -0.001   0.001   0.001   0.002  -0.801  -0.001  -0.002   0.648


----------------------------------------- Iteration    1(   9)  ---------------------------------------


    POTLOK:  cpu time    0.02: real time    0.02
    SETDIJ:  cpu time    0.02: real time    0.02
    EDDIAG:  cpu time    0.02: real time    0.02
  RMM-DIIS:  cpu time    0.03: real time    0.04
    ORTHCH:  cpu time    0.01: real time    0.01
       DOS:  cpu time    0.00: real time    0.00
    CHARGE:  cpu time    0.03: real time    0.03
    MIXING:  cpu time    0.00: real time    0.00
    --------------------------------------------
      LOOP:  cpu time    0.13: real time    0.13

 eigenvalue-minimisations  :   106
 total energy-change (2. order) :-0.1132695E-02  (-0.1264999E-03)
 number of electron      31.9999999 magnetization 
 augmentation part       -1.7274601 magnetization 

 Broyden mixing:
  rms(total) = 0.41747E-02    rms(broyden)= 0.41746E-02
  rms(prec ) = 0.68406E-02
  weight for this iteration     100.00

 eigenvalues of (default mixing * dielectric matrix)
  average eigenvalue GAMMA=   2.3004
  0.9883  3.2414  2.6841  2.2878

 Free energy of the ion-electron system (eV)
  ---------------------------------------------------
  alpha Z        PSCENC =        12.68944982
  Ewald energy   TEWEN  =      -907.56730410
  -1/2 Hartree   DENC   =       -70.79589260
  -exchange  EXHF       =         0.00000000
  -V(xc)+E(xc)   XCENC  =       -72.90640601
  PAW double counting   =       307.71508353     -166.55274526
  entropy T*S    EENTRO =         0.00000000
  eigenvalues    EBANDS =        37.81892476
  atomic energy  EATOM  =       826.37398168
  ---------------------------------------------------
  free energy    TOTEN  =       -33.22490819 eV

  energy without entropy =      -33.22490819  energy(sigma->0) =      -33.22490819


--------------------------------------------------------------------------------------------------------




 average (electrostatic) potential at core
  the test charge radii are     0.9892
  (the norm of the test charge is              1.0000)
       1 -83.2363       2 -83.2328       3 -83.2310       4 -83.2335       5 -83.2350
       6 -83.2335       7 -83.2345       8 -83.2367
 
 
 
 E-fermi :   6.0512     XC(G=0):  -9.1362     alpha+bet :-11.7379


 k-point   1 :       0.0000    0.0000    0.0000
  band No.  band energies     occupation 
      1      -5.9519      2.00000
      2      -1.8793      2.00000
      3      -1.8692      2.00000
      4      -1.8670      2.00000
      5      -1.8651      2.00000
      6      -1.8624      2.00000
      7      -1.8554      2.00000
      8       3.0443      2.00000
      9       3.0482      2.00000
     10       3.0489      2.00000
     11       3.0493      2.00000
     12       3.0529      2.00000
     13       3.0542      2.00000
     14       5.9177      2.00000
     15       5.9204      2.00000
     16       5.9238      2.00000
     17       6.5828      0.00000
     18       6.5871      0.00000
     19       6.5892      0.00000
     20       6.5927      0.00000
     21       6.5953      0.00000
     22       6.5985      0.00000
     23       8.3771      0.00000
     24       8.3792      0.00000
     25       8.3807      0.00000
     26       9.0526      0.00000
     27      13.6116      0.00000
     28      13.6117      0.00000
     29      13.8106      0.00000
     30      15.8189      0.00000
     31      15.8230      0.00000
     32      15.8268      0.00000
     33      15.8277      0.00000
     34      15.8289      0.00000
     35      15.8352      0.00000
     36      16.9483      0.00000
     37      16.9488      0.00000
     38      16.9524      0.00000
     39      16.9729      0.00000
     40      16.9792      0.00000
     41      16.9815      0.00000
     42      16.9830      0.00000
     43      16.9925      0.00000
     44      16.9958      0.00000
     45      18.7089      0.00000
     46      18.7201      0.00000
     47      18.7287      0.00000
     48      18.7331      0.00000


--------------------------------------------------------------------------------------------------------


 soft charge-density along one line, spin component           1
         0         1         2         3         4         5         6         7         8         9
 total charge-density along one line
 
 pseudopotential strength for first ion, spin component:           1
 18.598  -0.001   0.000   0.000   0.000   0.000   0.000   0.000
 -0.001   0.006   0.000   0.000   0.000   0.000   0.000   0.000
  0.000   0.000   4.224   0.000   0.000  -0.005   0.000   0.000
  0.000   0.000   0.000   4.224   0.000   0.000  -0.005   0.000
  0.000   0.000   0.000   0.000   4.224   0.000   0.000  -0.005
  0.000   0.000  -0.005   0.000   0.000   0.005   0.000   0.000
  0.000   0.000   0.000  -0.005   0.000   0.000   0.005   0.000
  0.000   0.000   0.000   0.000  -0.005   0.000   0.000   0.005
 total augmentation occupancy for first ion, spin component:           1
  1.320  -1.088  -0.002  -0.001   0.001   0.003   0.001  -0.001
 -1.088   1.014   0.001   0.000   0.000  -0.003  -0.001   0.001
 -0.002   0.001   1.122   0.001   0.000  -0.801  -0.001   0.001
 -0.001   0.000   0.001   1.124  -0.002  -0.001  -0.802   0.002
  0.001   0.000   0.000  -0.002   1.122   0.001   0.002  -0.801
  0.003  -0.003  -0.801  -0.001   0.001   0.647   0.001  -0.001
  0.001  -0.001  -0.001  -0.802   0.002   0.001   0.649  -0.002
 -0.001   0.001   0.001   0.002  -0.801  -0.001  -0.002   0.648


----------------------------------------- Iteration    1(  10)  ---------------------------------------


    POTLOK:  cpu time    0.02: real time    0.02
    SETDIJ:  cpu time    0.02: real time    0.02
    EDDIAG:  cpu time    0.02: real time    0.02
  RMM-DIIS:  cpu time    0.05: real time    0.05
    ORTHCH:  cpu time    0.01: real time    0.01
       DOS:  cpu time    0.00: real time    0.00
    CHARGE:  cpu time    0.02: real time    0.02
    MIXING:  cpu time    0.00: real time    0.00
    --------------------------------------------
      LOOP:  cpu time    0.14: real time    0.15

 eigenvalue-minimisations  :   104
 total energy-change (2. order) :-0.1844186E-03  (-0.2410627E-04)
 number of electron      31.9999999 magnetization 
 augmentation part       -1.7273383 magnetization 

 Broyden mixing:
  rms(total) = 0.45605E-03    rms(broyden)= 0.45561E-03
  rms(prec ) = 0.91228E-03
  weight for this iteration     100.00

 eigenvalues of (default mixing * dielectric matrix)
  average eigenvalue GAMMA=   2.0358
  3.0921  2.6259  2.1677  0.9775  1.3157

 Free energy of the ion-electron system (eV)
  ---------------------------------------------------
  alpha Z        PSCENC =        12.68944982
  Ewald energy   TEWEN  =      -907.56730410
  -1/2 Hartree   DENC   =       -70.84753702
  -exchange  EXHF       =         0.00000000
  -V(xc)+E(xc)   XCENC  =       -72.90953643
  PAW double counting   =       307.80329115     -166.64714503
  entropy T*S    EENTRO =         0.00000000
  eigenvalues    EBANDS =        37.87970732
  atomic energy  EATOM  =       826.37398168
  ---------------------------------------------------
  free energy    TOTEN  =       -33.22509261 eV

  energy without entropy =      -33.22509261  energy(sigma->0) =      -33.22509261


--------------------------------------------------------------------------------------------------------




 average (electrostatic) potential at core
  the test charge radii are     0.9892
  (the norm of the test charge is              1.0000)
       1 -83.2272       2 -83.2246       3 -83.2233       4 -83.2252       5 -83.2262
       6 -83.2251       7 -83.2258       8 -83.2275
 
 
 
 E-fermi :   6.0557     XC(G=0):  -9.1307     alpha+bet :-11.7379


 k-point   1 :       0.0000    0.0000    0.0000
  band No.  band energies     occupation 
      1      -5.9495      2.00000
      2      -1.8769      2.00000
      3      -1.8671      2.00000
      4      -1.8649      2.00000
      5      -1.8631      2.00000
      6      -1.8605      2.00000
      7      -1.8537      2.00000
      8       3.0461      2.00000
      9       3.0499      2.00000
     10       3.0505      2.00000
     11       3.0510      2.00000
     12       3.0545      2.00000
     13       3.0557      2.00000
     14       5.9198      2.00000
     15       5.9224      2.00000
     16       5.9259      2.00000
     17       6.5880      0.00000
     18       6.5924      0.00000
     19       6.5945      0.00000
     20       6.5980      0.00000
     21       6.6006      0.00000
     22       6.6038      0.00000
     23       8.3781      0.00000
     24       8.3801      0.00000
     25       8.3817      0.00000
     26       9.0563      0.00000
     27      13.6117      0.00000
     28      13.6117      0.00000
     29      13.8265      0.00000
     30      15.8208      0.00000
     31      15.8247      0.00000
     32      15.8286      0.00000
     33      15.8295      0.00000
     34      15.8307      0.00000
     35      15.8369      0.00000
     36      16.9523      0.00000
     37      16.9527      0.00000
     38      16.9564      0.00000
     39      16.9757      0.00000
     40      16.9818      0.00000
     41      16.9841      0.00000
     42      16.9856      0.00000
     43      16.9951      0.00000
     44      16.9984      0.00000
     45      18.7164      0.00000
     46      18.7269      0.00000
     47      18.7357      0.00000
     48      18.7398      0.00000


--------------------------------------------------------------------------------------------------------


 soft charge-density along one line, spin component           1
         0         1         2         3         4         5         6         7         8         9
 total charge-density along one line
 
 pseudopotential strength for first ion, spin component:           1
 18.597  -0.001   0.000   0.000   0.000   0.000   0.000   0.000
 -0.001   0.006   0.000   0.000   0.000   0.000   0.000   0.000
  0.000   0.000   4.224   0.000   0.000  -0.005   0.000   0.000
  0.000   0.000   0.000   4.224   0.000   0.000  -0.005   0.000
  0.000   0.000   0.000   0.000   4.224   0.000   0.000  -0.005
  0.000   0.000  -0.005   0.000   0.000   0.005   0.000   0.000
  0.000   0.000   0.000  -0.005   0.000   0.000   0.005   0.000
  0.000   0.000   0.000   0.000  -0.005   0.000   0.000   0.005
 total augmentation occupancy for first ion, spin component:           1
  1.320  -1.088  -0.002  -0.001   0.001   0.003   0.001  -0.001
 -1.088   1.014   0.001   0.000   0.000  -0.003  -0.001   0.001
 -0.002   0.001   1.122   0.001   0.000  -0.801  -0.001   0.001
 -0.001   0.000   0.001   1.124  -0.002  -0.001  -0.803   0.002
  0.001   0.000   0.000  -0.002   1.122   0.001   0.002  -0.801
  0.003  -0.003  -0.801  -0.001   0.001   0.648   0.001  -0.001
  0.001  -0.001  -0.001  -0.803   0.002   0.001   0.650  -0.002
 -0.001   0.001   0.001   0.002  -0.801  -0.001  -0.002   0.649


----------------------------------------- Iteration    1(  11)  ---------------------------------------


    POTLOK:  cpu time    0.02: real time    0.02
    SETDIJ:  cpu time    0.02: real time    0.02
    EDDIAG:  cpu time    0.02: real time    0.02
  RMM-DIIS:  cpu time    0.05: real time    0.05
    ORTHCH:  cpu time    0.01: real time    0.01
       DOS:  cpu time    0.00: real time    0.00
    CHARGE:  cpu time    0.02: real time    0.02
    MIXING:  cpu time    0.00: real time    0.00
    --------------------------------------------
      LOOP:  cpu time    0.14: real time    0.14

 eigenvalue-minimisations  :   115
 total energy-change (2. order) : 0.4401217E-05  (-0.3229762E-06)
 number of electron      31.9999999 magnetization 
 augmentation part       -1.7274376 magnetization 

 Broyden mixing:
  rms(total) = 0.15801E-03    rms(broyden)= 0.15796E-03
  rms(prec ) = 0.30780E-03
  weight for this iteration     100.00

 eigenvalues of (default mixing * dielectric matrix)
  average eigenvalue GAMMA=   1.9675
  3.2069  2.7019  2.1555  1.7901  0.9752  0.9752

 Free energy of the ion-electron system (eV)
  ---------------------------------------------------
  alpha Z        PSCENC =        12.68944982
  Ewald energy   TEWEN  =      -907.56730410
  -1/2 Hartree   DENC   =       -70.82812325
  -exchange  EXHF       =         0.00000000
  -V(xc)+E(xc)   XCENC  =       -72.91086728
  PAW double counting   =       307.73406218     -166.57522296
  entropy T*S    EENTRO =         0.00000000
  eigenvalues    EBANDS =        37.85893571
  atomic energy  EATOM  =       826.37398168
  ---------------------------------------------------
  free energy    TOTEN  =       -33.22508821 eV

  energy without entropy =      -33.22508821  energy(sigma->0) =      -33.22508821


--------------------------------------------------------------------------------------------------------




 average (electrostatic) potential at core
  the test charge radii are     0.9892
  (the norm of the test charge is              1.0000)
       1 -83.2296       2 -83.2265       3 -83.2249       4 -83.2272       5 -83.2285
       6 -83.2271       7 -83.2280       8 -83.2301
 
 
 
 E-fermi :   6.0551     XC(G=0):  -9.1314     alpha+bet :-11.7379


 k-point   1 :       0.0000    0.0000    0.0000
  band No.  band energies     occupation 
      1      -5.9502      2.00000
      2      -1.8778      2.00000
      3      -1.8678      2.00000
      4      -1.8656      2.00000
      5      -1.8638      2.00000
      6      -1.8611      2.00000
      7      -1.8542      2.00000
      8       3.0454      2.00000
      9       3.0493      2.00000
     10       3.0499      2.00000
     11       3.0504      2.00000
     12       3.0540      2.00000
     13       3.0552      2.00000
     14       5.9191      2.00000
     15       5.9217      2.00000
     16       5.9251      2.00000
     17       6.5873      0.00000
     18       6.5917      0.00000
     19       6.5938      0.00000
     20       6.5973      0.00000
     21       6.5999      0.00000
     22       6.6031      0.00000
     23       8.3776      0.00000
     24       8.3796      0.00000
     25       8.3812      0.00000
     26       9.0553      0.00000
     27      13.6114      0.00000
     28      13.6115      0.00000
     29      13.8249      0.00000
     30      15.8201      0.00000
     31      15.8241      0.00000
     32      15.8279      0.00000
     33      15.8288      0.00000
     34      15.8300      0.00000
     35      15.8363      0.00000
     36      16.9518      0.00000
     37      16.9522      0.00000
     38      16.9559      0.00000
     39      16.9750      0.00000
     40      16.9812      0.00000
     41      16.9835      0.00000
     42      16.9850      0.00000
     43      16.9945      0.00000
     44      16.9978      0.00000
     45      18.7176      0.00000
     46      18.7272      0.00000
     47      18.7359      0.00000
     48      18.7393      0.00000


--------------------------------------------------------------------------------------------------------


 soft charge-density along one line, spin component           1
         0         1         2         3         4         5         6         7         8         9
 total charge-density along one line
 
 pseudopotential strength for first ion, spin component:           1
 18.598  -0.001   0.000   0.000   0.000   0.000   0.000   0.000
 -0.001   0.006   0.000   0.000   0.000   0.000   0.000   0.000
  0.000   0.000   4.224   0.000   0.000  -0.005   0.000   0.000
  0.000   0.000   0.000   4.224   0.000   0.000  -0.005   0.000
  0.000   0.000   0.000   0.000   4.224   0.000   0.000  -0.005
  0.000   0.000  -0.005   0.000   0.000   0.005   0.000   0.000
  0.000   0.000   0.000  -0.005   0.000   0.000   0.005   0.000
  0.000   0.000   0.000   0.000  -0.005   0.000   0.000   0.005
 total augmentation occupancy for first ion, spin component:           1
  1.320  -1.088  -0.002  -0.001   0.001   0.003   0.001  -0.001
 -1.088   1.014   0.001   0.000   0.000  -0.003  -0.001   0.001
 -0.002   0.001   1.122   0.001   0.000  -0.801  -0.001   0.001
 -0.001   0.000   0.001   1.124  -0.002  -0.001  -0.803   0.002
  0.001   0.000   0.000  -0.002   1.122   0.001   0.002  -0.801
  0.003  -0.003  -0.801  -0.001   0.001   0.648   0.001  -0.001
  0.001  -0.001  -0.001  -0.803   0.002   0.001   0.650  -0.002
 -0.001   0.001   0.001   0.002  -0.801  -0.001  -0.002   0.649


----------------------------------------- Iteration    1(  12)  ---------------------------------------


    POTLOK:  cpu time    0.02: real time    0.02
    SETDIJ:  cpu time    0.02: real time    0.02
    EDDIAG:  cpu time    0.02: real time    0.02
  RMM-DIIS:  cpu time    0.04: real time    0.04
    ORTHCH:  cpu time    0.01: real time    0.01
       DOS:  cpu time    0.00: real time    0.00
    CHARGE:  cpu time    0.02: real time    0.02
    MIXING:  cpu time    0.00: real time    0.00
    --------------------------------------------
      LOOP:  cpu time    0.13: real time    0.13

 eigenvalue-minimisations  :   127
 total energy-change (2. order) :-0.6414689E-06  (-0.5397355E-07)
 number of electron      31.9999999 magnetization 
 augmentation part       -1.7274255 magnetization 

 Broyden mixing:
  rms(total) = 0.60000E-04    rms(broyden)= 0.59967E-04
  rms(prec ) = 0.85332E-04
  weight for this iteration     100.00

 eigenvalues of (default mixing * dielectric matrix)
  average eigenvalue GAMMA=   2.0009
  3.2075  2.7398  2.4826  2.0776  1.5410  0.9954  0.9626

 Free energy of the ion-electron system (eV)
  ---------------------------------------------------
  alpha Z        PSCENC =        12.68944982
  Ewald energy   TEWEN  =      -907.56730410
  -1/2 Hartree   DENC   =       -70.83243306
  -exchange  EXHF       =         0.00000000
  -V(xc)+E(xc)   XCENC  =       -72.91080475
  PAW double counting   =       307.74129267     -166.58264298
  entropy T*S    EENTRO =         0.00000000
  eigenvalues    EBANDS =        37.86337187
  atomic energy  EATOM  =       826.37398168
  ---------------------------------------------------
  free energy    TOTEN  =       -33.22508885 eV

  energy without entropy =      -33.22508885  energy(sigma->0) =      -33.22508885


--------------------------------------------------------------------------------------------------------




 average (electrostatic) potential at core
  the test charge radii are     0.9892
  (the norm of the test charge is              1.0000)
       1 -83.2292       2 -83.2260       3 -83.2243       4 -83.2267       5 -83.2280
       6 -83.2266       7 -83.2275       8 -83.2297
 
 
 
 E-fermi :   6.0554     XC(G=0):  -9.1311     alpha+bet :-11.7379


 k-point   1 :       0.0000    0.0000    0.0000
  band No.  band energies     occupation 
      1      -5.9500      2.00000
      2      -1.8777      2.00000
      3      -1.8677      2.00000
      4      -1.8655      2.00000
      5      -1.8636      2.00000
      6      -1.8610      2.00000
      7      -1.8540      2.00000
      8       3.0455      2.00000
      9       3.0494      2.00000
     10       3.0500      2.00000
     11       3.0505      2.00000
     12       3.0541      2.00000
[...]
    LRDIIS:  cpu time    0.02: real time    0.02
    LRDIAG:  cpu time    0.01: real time    0.01
    MIXING:  cpu time    0.00: real time    0.00
    --------------------------------------------
      LOOP:  cpu time    0.15: real time    0.15

 Broyden mixing:
  rms(total) = 0.13552E-01    rms(broyden)= 0.13550E-01
  rms(prec ) = 0.23492E-01
  weight for this iteration     100.00

 eigenvalues of (default mixing * dielectric matrix)
  average eigenvalue GAMMA=   1.9158
  2.5448  1.3213  1.8814

 Free energy of the ion-electron system (eV)
  ---------------------------------------------------
  -1/2 Hartree   DENC   =        -4.57426704
  -V(xc)+E(xc)   XCENC  =         0.93550195
  PAW double counting   =         3.10434167       -3.15372353
  entropy T*S    EENTRO =         0.00000000
  eigenvalues    EBANDS =       -24.49110525
  ---------------------------------------------------
  free energy    TOTEN  =       -28.17925219 eV

  energy without entropy =      -28.17925219


----------------------------------------- Iteration    3(   6)  ---------------------------------------


   POT+DIJ:  cpu time    0.07: real time    0.08
    HAMIL1:  cpu time    0.00: real time    0.01
    LRDIAG:  cpu time    0.01: real time    0.01
    LRDIIS:  cpu time    0.02: real time    0.02
    LRDIAG:  cpu time    0.01: real time    0.01
    MIXING:  cpu time    0.00: real time    0.00
    --------------------------------------------
      LOOP:  cpu time    0.16: real time    0.16

 Broyden mixing:
  rms(total) = 0.70876E-02    rms(broyden)= 0.70872E-02
  rms(prec ) = 0.12167E-01
  weight for this iteration     100.00

 eigenvalues of (default mixing * dielectric matrix)
  average eigenvalue GAMMA=   2.0731
  3.0311  2.4841  1.1212  1.6558

 Free energy of the ion-electron system (eV)
  ---------------------------------------------------
  -1/2 Hartree   DENC   =        -4.61378884
  -V(xc)+E(xc)   XCENC  =         0.94944566
  PAW double counting   =         3.10166330       -3.15104689
  entropy T*S    EENTRO =         0.00000000
  eigenvalues    EBANDS =       -24.52466723
  ---------------------------------------------------
  free energy    TOTEN  =       -28.23839399 eV

  energy without entropy =      -28.23839399


----------------------------------------- Iteration    3(   7)  ---------------------------------------


   POT+DIJ:  cpu time    0.08: real time    0.08
    HAMIL1:  cpu time    0.00: real time    0.01
    LRDIAG:  cpu time    0.01: real time    0.01
    LRDIIS:  cpu time    0.02: real time    0.02
    LRDIAG:  cpu time    0.01: real time    0.01
    MIXING:  cpu time    0.00: real time    0.00
    --------------------------------------------
      LOOP:  cpu time    0.15: real time    0.15

 Broyden mixing:
  rms(total) = 0.53467E-03    rms(broyden)= 0.53374E-03
  rms(prec ) = 0.99927E-03
  weight for this iteration     100.00

 eigenvalues of (default mixing * dielectric matrix)
  average eigenvalue GAMMA=   1.9671
  3.0950  2.4067  1.1138  1.6784  1.5415

 Free energy of the ion-electron system (eV)
  ---------------------------------------------------
  -1/2 Hartree   DENC   =        -4.62584460
  -V(xc)+E(xc)   XCENC  =         0.95721774
  PAW double counting   =         3.06453401       -3.11336057
  entropy T*S    EENTRO =         0.00000000
  eigenvalues    EBANDS =       -24.56109029
  ---------------------------------------------------
  free energy    TOTEN  =       -28.27854370 eV

  energy without entropy =      -28.27854370


----------------------------------------- Iteration    3(   8)  ---------------------------------------


   POT+DIJ:  cpu time    0.07: real time    0.08
    HAMIL1:  cpu time    0.01: real time    0.01
    LRDIAG:  cpu time    0.01: real time    0.01
    LRDIIS:  cpu time    0.02: real time    0.02
    LRDIAG:  cpu time    0.01: real time    0.01
    MIXING:  cpu time    0.00: real time    0.00
    --------------------------------------------
      LOOP:  cpu time    0.15: real time    0.15

 Broyden mixing:
  rms(total) = 0.27800E-03    rms(broyden)= 0.27793E-03
  rms(prec ) = 0.40892E-03
  weight for this iteration     100.00

 eigenvalues of (default mixing * dielectric matrix)
  average eigenvalue GAMMA=   1.9102
  3.0898  2.4581  2.0911  1.6631  1.0330  1.1261

 Free energy of the ion-electron system (eV)
  ---------------------------------------------------
  -1/2 Hartree   DENC   =        -4.62930907
  -V(xc)+E(xc)   XCENC  =         0.95811923
  PAW double counting   =         3.06841962       -3.11731123
  entropy T*S    EENTRO =         0.00000000
  eigenvalues    EBANDS =       -24.56204778
  ---------------------------------------------------
  free energy    TOTEN  =       -28.28212922 eV

  energy without entropy =      -28.28212922


----------------------------------------- Iteration    3(   9)  ---------------------------------------


   POT+DIJ:  cpu time    0.08: real time    0.08
    HAMIL1:  cpu time    0.01: real time    0.01
    LRDIAG:  cpu time    0.02: real time    0.02
    LRDIIS:  cpu time    0.03: real time    0.03
    LRDIAG:  cpu time    0.01: real time    0.01
    MIXING:  cpu time    0.00: real time    0.00
    --------------------------------------------
      LOOP:  cpu time    0.20: real time    0.20

 Broyden mixing:
  rms(total) = 0.10023E-03    rms(broyden)= 0.10021E-03
  rms(prec ) = 0.15290E-03
  weight for this iteration     100.00

 eigenvalues of (default mixing * dielectric matrix)
  average eigenvalue GAMMA=   1.8931
  3.1752  2.7389  2.4018  1.6745  1.2687  1.0991  0.8939

 Free energy of the ion-electron system (eV)
  ---------------------------------------------------
  -1/2 Hartree   DENC   =        -4.62901922
  -V(xc)+E(xc)   XCENC  =         0.95806008
  PAW double counting   =         3.07064156       -3.11957139
  entropy T*S    EENTRO =         0.00000000
  eigenvalues    EBANDS =       -24.56229431
  ---------------------------------------------------
  free energy    TOTEN  =       -28.28218327 eV

  energy without entropy =      -28.28218327


----------------------------------------- Iteration    3(  10)  ---------------------------------------


   POT+DIJ:  cpu time    0.10: real time    0.10
    HAMIL1:  cpu time    0.00: real time    0.00
    LRDIAG:  cpu time    0.02: real time    0.02
    LRDIIS:  cpu time    0.03: real time    0.03
    LRDIAG:  cpu time    0.01: real time    0.01
    MIXING:  cpu time    0.00: real time    0.00
    --------------------------------------------
      LOOP:  cpu time    0.19: real time    0.19

 Broyden mixing:
  rms(total) = 0.14732E-04    rms(broyden)= 0.14721E-04
  rms(prec ) = 0.23979E-04
  weight for this iteration     100.00

 eigenvalues of (default mixing * dielectric matrix)
  average eigenvalue GAMMA=   1.8331
  3.1952  2.7700  2.4448  1.6711  1.4245  0.9880  1.1204  1.0506

 Free energy of the ion-electron system (eV)
  ---------------------------------------------------
  -1/2 Hartree   DENC   =        -4.62909000
  -V(xc)+E(xc)   XCENC  =         0.95809943
  PAW double counting   =         3.07171054       -3.12065904
  entropy T*S    EENTRO =         0.00000000
  eigenvalues    EBANDS =       -24.56254884
  ---------------------------------------------------
  free energy    TOTEN  =       -28.28248791 eV

  energy without entropy =      -28.28248791


----------------------------------------- Iteration    3(  11)  ---------------------------------------


   POT+DIJ:  cpu time    0.08: real time    0.09
    HAMIL1:  cpu time    0.00: real time    0.01
    LRDIAG:  cpu time    0.01: real time    0.01
    LRDIIS:  cpu time    0.02: real time    0.02
    LRDIAG:  cpu time    0.01: real time    0.01
    MIXING:  cpu time    0.00: real time    0.00
    --------------------------------------------
      LOOP:  cpu time    0.16: real time    0.17

 Broyden mixing:
  rms(total) = 0.37626E-05    rms(broyden)= 0.37603E-05
  rms(prec ) = 0.51290E-05
  weight for this iteration     100.00

 eigenvalues of (default mixing * dielectric matrix)
  average eigenvalue GAMMA=   1.8988
  3.2039  2.8050  2.4386  2.4386  1.6716  1.4148  1.1105  1.0031  1.0031

 Free energy of the ion-electron system (eV)
  ---------------------------------------------------
  -1/2 Hartree   DENC   =        -4.62910044
  -V(xc)+E(xc)   XCENC  =         0.95809706
  PAW double counting   =         3.07179936       -3.12074933
  entropy T*S    EENTRO =         0.00000000
  eigenvalues    EBANDS =       -24.56253055
  ---------------------------------------------------
  free energy    TOTEN  =       -28.28248390 eV

  energy without entropy =      -28.28248390


----------------------------------------- Iteration    3(  12)  ---------------------------------------


   POT+DIJ:  cpu time    0.08: real time    0.08
    HAMIL1:  cpu time    0.01: real time    0.01
    LRDIAG:  cpu time    0.01: real time    0.01
    LRDIIS:  cpu time    0.03: real time    0.03
    LRDIAG:  cpu time    0.01: real time    0.01
    MIXING:  cpu time    0.00: real time    0.00
    --------------------------------------------
      LOOP:  cpu time    0.17: real time    0.17

 Broyden mixing:
  rms(total) = 0.88882E-06    rms(broyden)= 0.88838E-06
  rms(prec ) = 0.13804E-05
  weight for this iteration     100.00

 eigenvalues of (default mixing * dielectric matrix)
  average eigenvalue GAMMA=   1.8384
  3.2054  2.8142  2.5408  2.4469  1.6708  1.2935  1.2935  1.0037  1.0037  1.1111

 Free energy of the ion-electron system (eV)
  ---------------------------------------------------
  -1/2 Hartree   DENC   =        -4.62910074
  -V(xc)+E(xc)   XCENC  =         0.95809681
  PAW double counting   =         3.07171275       -3.12066126
  entropy T*S    EENTRO =         0.00000000
  eigenvalues    EBANDS =       -24.56253161
  ---------------------------------------------------
  free energy    TOTEN  =       -28.28248406 eV

  energy without entropy =      -28.28248406


------------------------ aborting loop because EDIFF is reached ----------------------------------------


 change of polarisation eV/A/(eV/A) component  3 :     0.012     0.030    50.526
 dielectric tensor                  component  3 :     0.014     0.033    56.862


--------------------------------------------------------------------------------------------------------


    FORLOC:  cpu time    0.00: real time    0.00
    FORNL :  cpu time    0.09: real time    0.09
    STRESS:  cpu time    0.30: real time    0.30
    FORCOR:  cpu time    0.02: real time    0.02
    FORLOC:  cpu time    0.00: real time    0.00
    FORNL :  cpu time    0.09: real time    0.09
    STRESS:  cpu time    0.28: real time    0.28
    FORCOR:  cpu time    0.02: real time    0.02
    FORNLD:  cpu time    0.01: real time    0.01

 PIEZOELECTRIC TENSOR FIELD DIRECTION 3  (e Angst)
 -----------------------------------------------------------------------------
    -0.00727  0.00205  0.00435           (  0.00002  0.00002  0.00008)
     0.00205  0.00393  0.00047           (  0.00002 -0.00001  0.00009)
     0.00435  0.00046  0.00193           (  0.00008  0.00009 -0.00003)

 PIEZOELECTRIC TENSOR FIELD DIRECTION 3  (C/m^2)
 -----------------------------------------------------------------------------
    -0.00071  0.00020  0.00043
     0.00020  0.00038  0.00005
     0.00043  0.00005  0.00019


      POSITION         DIRECTION 3           BORN EFFECTIVE CHARGE    (rigid.aug.   ionic)
 -----------------------------------------------------------------------------------------
      0.00219      0.00001      5.46896     0.17613 -0.01944 -5.75072 (  0.21595  4.00000)
      1.36751      1.36646      1.37164     0.03528  0.02102 -5.81264 (  0.21592  4.00000)
      2.73396      2.73914      0.00162    -0.14214  0.04920 -5.83048 (  0.21590  4.00000)
      4.10664      4.10412      1.36788     0.03668 -0.04983 -5.79895 (  0.21592  4.00000)
      2.73662      0.00038      2.73577    -0.17734 -0.04743 -5.75822 (  0.21593  4.00000)
      4.10288      1.36827      4.10258    -0.03722  0.04746 -5.77153 (  0.21592  4.00000)
      0.00077      2.73508      2.73851     0.14139  0.01487 -5.76545 (  0.21593  4.00000)
      1.36758      4.10601      4.10493    -0.03652 -0.02356 -5.72288 (  0.21595  4.00000)
 -----------------------------------------------------------------------------------------
    total drift (improves with k-points):  -0.00374 -0.00771-46.21087




--------------------------------------------------------------------------------------------------------


  LATTYP: Found a simple cubic cell.
 ALAT       =     5.4700000000
  
  Lattice vectors:
  
 A1 = (   5.4700000000,   0.0000000000,   0.0000000000)
 A2 = (   0.0000000000,   5.4700000000,   0.0000000000)
 A3 = (   0.0000000000,   0.0000000000,   5.4700000000)


Analysis of symmetry for initial positions (statically):
=====================================================================
 Subroutine PRICEL returns:
 Original cell was already a primitive cell.
 

 Routine SETGRP: Setting up the symmetry group for a 
 simple cubic supercell.


 Subroutine GETGRP returns: Found  1 space group operations
 (whereof  1 operations were pure point group operations)
 out of a pool of 48 trial point group operations.


The static configuration has the point symmetry C_1 .


Analysis of symmetry for dynamics (positions and initial velocities):
=====================================================================
 Subroutine PRICEL returns:
 Original cell was already a primitive cell.
 

 Routine SETGRP: Setting up the symmetry group for a 
 simple cubic supercell.


 Subroutine GETGRP returns: Found  1 space group operations
 (whereof  1 operations were pure point group operations)
 out of a pool of 48 trial point group operations.


The dynamic configuration has the point symmetry C_1 .


 MACROSCOPIC STATIC DIELECTRIC TENSOR (including local field effects in DFT)
 ------------------------------------------------------
          56.850305     0.076905     0.013625
           0.076904    56.865270     0.032868
           0.013624     0.032869    56.862213
 ------------------------------------------------------



--------------------------------------------------------------------------------------------------------


  LATTYP: Found a simple cubic cell.
 ALAT       =     5.4700000000
  
  Lattice vectors:
  
 A1 = (   5.4700000000,   0.0000000000,   0.0000000000)
 A2 = (   0.0000000000,   5.4700000000,   0.0000000000)
 A3 = (   0.0000000000,   0.0000000000,   5.4700000000)


Analysis of symmetry for initial positions (statically):
=====================================================================
 Subroutine PRICEL returns:
 Original cell was already a primitive cell.
 

 Routine SETGRP: Setting up the symmetry group for a 
 simple cubic supercell.


 Subroutine GETGRP returns: Found  1 space group operations
 (whereof  1 operations were pure point group operations)
 out of a pool of 48 trial point group operations.


The static configuration has the point symmetry C_1 .


Analysis of symmetry for dynamics (positions and initial velocities):
=====================================================================
 Subroutine PRICEL returns:
 Original cell was already a primitive cell.
 

 Routine SETGRP: Setting up the symmetry group for a 
 simple cubic supercell.


 Subroutine GETGRP returns: Found  1 space group operations
 (whereof  1 operations were pure point group operations)
 out of a pool of 48 trial point group operations.


The dynamic configuration has the point symmetry C_1 .
 
 KPOINTS: Automatic mesh                          

Automatic generation of k-mesh.
Space group operators:
 irot       det(A)        alpha          n_x          n_y          n_z        tau_x        tau_y        tau_z
    1     1.000000     0.000001     1.000000     0.000000     0.000000     0.000000     0.000000     0.000000
 
 Subroutine IBZKPT returns following result:
 ===========================================
 
 Found      1 irreducible k-points:
 
 Following reciprocal coordinates:
            Coordinates               Weight
  0.000000  0.000000  0.000000      1.000000
 
 Following cartesian coordinates:
            Coordinates               Weight
  0.000000  0.000000  0.000000      1.000000
 


--------------------------------------------------------------------------------------------------------




 MACROSCOPIC STATIC DIELECTRIC TENSOR (including local field effects in DFT)
 ------------------------------------------------------
          56.850305     0.076905     0.013625
           0.076904    56.865270     0.032868
           0.013624     0.032869    56.862213
 ------------------------------------------------------


 PIEZOELECTRIC TENSOR  for field in x, y, z        (e  Angst)
          XX          YY          ZZ          XY          YZ          ZX
  --------------------------------------------------------------------------------
  x    -0.00478    -0.00483     0.00719     0.00456    -0.00548     0.00444
  y     0.00911    -0.00177     0.00017    -0.00206     0.00475     0.00264
  z    -0.00727     0.00393     0.00193     0.00205     0.00046     0.00435

 PIEZOELECTRIC TENSOR  for field in x, y, z        (C/m^2)
          XX          YY          ZZ          XY          YZ          ZX
  --------------------------------------------------------------------------------
  x    -0.00047    -0.00047     0.00070     0.00045    -0.00054     0.00044
  y     0.00089    -0.00017     0.00002    -0.00020     0.00047     0.00026
  z    -0.00071     0.00038     0.00019     0.00020     0.00005     0.00043
 
 BORN EFFECTIVE CHARGES (in e, cummulative output)
 -------------------------------------------------
 ion    1
    1    -5.72928     0.00831    -0.10223
    2    -0.03796    -5.72686    -0.00628
    3     0.17613    -0.01944    -5.75072
 ion    2
    1    -5.78755    -0.16831    -0.03117
    2     0.16715    -5.81170    -0.00777
    3     0.03528     0.02102    -5.81264
 ion    3
    1    -5.83813    -0.01268     0.12039
    2     0.03590    -5.84589    -0.08262
    3    -0.14214     0.04920    -5.83048
 ion    4
    1    -5.79392     0.16164    -0.02944
    2    -0.17417    -5.77211    -0.01171
    3     0.03668    -0.04983    -5.79895
 ion    5
    1    -5.77889     0.00748     0.10416
    2    -0.03852    -5.74404     0.08265
    3    -0.17734    -0.04743    -5.75822
 ion    6
    1    -5.79539     0.07262     0.02695
    2    -0.14046    -5.79767     0.01159
    3    -0.03722     0.04746    -5.77153
 ion    7
    1    -5.75689    -0.01424    -0.11939
    2     0.03264    -5.79026     0.00078
    3     0.14139     0.01487    -5.76545
 ion    8
    1    -5.72798    -0.07328     0.02678
    2     0.13696    -5.72454     0.00576
    3    -0.03652    -0.02356    -5.72288


--------------------------------------------------------------------------------------------------------


     LOOP+:  cpu time   19.68: real time   20.10
    4ORBIT:  cpu time    0.00: real time    0.00

 total amount of memory used by VASP on root node    32224. kBytes
========================================================================

   base      :      30000. kBytes
   nonl-proj :        202. kBytes
   fftplans  :        782. kBytes
   grid      :       1198. kBytes
   one-center:         24. kBytes
   wavefun   :         18. kBytes
 
  
  
 General timing and accounting informations for this job:
 ========================================================
  
                  Total CPU time used (sec):       20.297
                            User time (sec):       16.458
                          System time (sec):        3.838
                         Elapsed time (sec):       22.306
  
                   Maximum memory used (kb):       70492.
                   Average memory used (kb):           0.
  
                          Minor page faults:       203573
                          Major page faults:            0
                 Voluntary context switches:         1410
