 vasp.5.3.3 18Dez12 (build Jan  9 2014 12:00:49) complex                        
  
 executed on             LinuxIFC date 2014.01.29  10:12:23
 running on   48 total cores
 distrk:  each k-point on   48 cores,    1 groups
 distr:  one band on NCORES_PER_BAND=   1 cores,   48 groups


--------------------------------------------------------------------------------------------------------


 INCAR:
 POTCAR:    PAW Si                                

 ----------------------------------------------------------------------------- 
|                                                                             |
|           W    W    AA    RRRRR   N    N  II  N    N   GGGG   !!!           |
|           W    W   A  A   R    R  NN   N  II  NN   N  G    G  !!!           |
|           W    W  A    A  R    R  N N  N  II  N N  N  G       !!!           |
|           W WW W  AAAAAA  RRRRR   N  N N  II  N  N N  G  GGG   !            |
|           WW  WW  A    A  R   R   N   NN  II  N   NN  G    G                |
|           W    W  A    A  R    R  N    N  II  N    N   GGGG   !!!           |
|                                                                             |
|      For optimal performance we recommend that you set                      |
|        NPAR = 4 - approx SQRT( number of cores)                             |
|      (number of cores/NPAR must be integer)                                 |
|      This setting will greatly improve the performance of VASP for DFT.     |
|      The default NPAR=number of cores might be grossly inefficient          |
|      on modern multi-core architectures or massively parallel machines.     |
|      Do your own testing.                                                   |
|      Unfortunately you need to use the default for hybrid, GW and RPA       |
|      calculations.                                                          |
|                                                                             |
 ----------------------------------------------------------------------------- 

 POTCAR:    PAW Si                                
   VRHFIN =Si: s2p2                                                             
   LEXCH  = 91                                                                  
   EATOM  =   103.3076 eV,    7.5929 Ry                                         
                                                                                
   TITEL  = PAW Si                                                              
   LULTRA =        F    use ultrasoft PP ?                                      
   IUNSCR =        1    unscreen: 0-lin 1-nonlin 2-no                           
   RPACOR =    1.500    partial core radius                                     
   POMASS =   28.085; ZVAL   =    4.000    mass and valenz                      
   RCORE  =    1.900    outmost cutoff radius                                   
   RWIGS  =    2.480; RWIGS  =    1.312    wigner-seitz radius (au A)           
   ENMAX  =  245.435; ENMIN  =  184.076 eV                                      
   ICORE  =        2    local potential                                         
   LCOR   =        T    correct aug charges                                     
   LPAW   =        T    paw PP                                                  
   EAUG   =  322.069                                                            
   DEXC   =    -.001                                                            
   RMAX   =    2.943    core radius for proj-oper                               
   RAUG   =    1.300    factor for augmentation sphere                          
   RDEP   =    1.993    core radius for depl-charge                             
   QCUT   =   -4.247; QGAM   =    8.494    optimization parameters              
                                                                                
   Description                                                                  
     l     E      TYP  RCUT    TYP  RCUT                                        
     0   .000     23  1.900                                                     
     0   .000     23  1.900                                                     
     1   .000     23  1.900                                                     
     1   .000     23  1.900                                                     
     2   .000      7  1.900                                                     
  local pseudopotential read in
  partial core-charges read in
  atomic valenz-charges read in
  non local Contribution for L=           0  read in
    real space projection operators read in
  non local Contribution for L=           0  read in
    real space projection operators read in
  non local Contribution for L=           1  read in
    real space projection operators read in
  non local Contribution for L=           1  read in
    real space projection operators read in
    PAW grid and wavefunctions read in
 
   number of l-projection  operators is LMAX  =           4
   number of lm-projection operators is LMMAX =           8
 
  PAW Si                                :
 energy of atom  1       EATOM= -103.3076
 kinetic energy error for atom=    0.0109 (will be added to EATOM!!)
 
 
 POSCAR: OUTCAR.0022.+1.out 1.0e-02              
  positions in cartesian coordinates
  No initial velocities read in
 exchange correlation table for  LEXCH =        7
   RHO(1)=    0.500       N(1)  =     2000
   RHO(2)=  100.500       N(2)  =     4000

 VTST: version 3.0c, (01/09/14)

 CHAIN: initializing optimizer
 
 OPT: Using VASP Dynamics algorithm
 CHAIN: Read ICHAIN            0
 
 POSCAR: OUTCAR.0022.+1.out 1.0e-02              
  positions in cartesian coordinates
  No initial velocities read in
 


--------------------------------------------------------------------------------------------------------


 ion  position               nearest neighbor table
   1  0.000  0.001  1.000-   2 2.37   6 2.37   8 2.37   4 2.37
   2  0.251  0.250  0.250-   3 2.36   1 2.37   5 2.37   7 2.37
   3  0.500  0.500  0.000-   2 2.36   6 2.37   4 2.37   8 2.37
   4  0.750  0.750  0.250-   5 2.37   3 2.37   1 2.37   7 2.37
   5  0.500  1.000  0.500-   8 2.36   4 2.37   2 2.37   6 2.37
   6  0.750  0.250  0.750-   7 2.37   1 2.37   3 2.37   5 2.37
   7  0.000  0.500  0.501-   8 2.37   6 2.37   4 2.37   2 2.37
   8  0.250  0.751  0.749-   5 2.36   7 2.37   1 2.37   3 2.37
 
  LATTYP: Found a simple cubic cell.
 ALAT       =     5.4700000000
  
  Lattice vectors:
  
 A1 = (   5.4700000000,   0.0000000000,   0.0000000000)
 A2 = (   0.0000000000,   5.4700000000,   0.0000000000)
 A3 = (   0.0000000000,   0.0000000000,   5.4700000000)


Analysis of symmetry for initial positions (statically):
=====================================================================
 Subroutine PRICEL returns:
 Original cell was already a primitive cell.
 

 Routine SETGRP: Setting up the symmetry group for a 
 simple cubic supercell.


 Subroutine GETGRP returns: Found  1 space group operations
 (whereof  1 operations were pure point group operations)
 out of a pool of 48 trial point group operations.


The static configuration has the point symmetry C_1 .


Analysis of symmetry for dynamics (positions and initial velocities):
=====================================================================
 Subroutine PRICEL returns:
 Original cell was already a primitive cell.
 

 Routine SETGRP: Setting up the symmetry group for a 
 simple cubic supercell.


 Subroutine GETGRP returns: Found  1 space group operations
 (whereof  1 operations were pure point group operations)
 out of a pool of 48 trial point group operations.


The dynamic configuration has the point symmetry C_1 .


 irot  :   1
 --------------------------------------------------------------------
 isymop:   1   0   0
           0   1   0
           0   0   1

 gtrans:     0.0000000     0.0000000     0.0000000

 ptrans:     0.0000000     0.0000000     0.0000000
 rotmap:
 (   1->   1)  (   2->   2)  (   3->   3)  (   4->   4)  (   5->   5) 
 (   6->   6)  (   7->   7)  (   8->   8) 
 
 
 KPOINTS: Automatic mesh                          

Automatic generation of k-mesh.
Space group operators:
 irot       det(A)        alpha          n_x          n_y          n_z        tau_x        tau_y        tau_z
    1     1.000000     0.000001     1.000000     0.000000     0.000000     0.000000     0.000000     0.000000
 
 Subroutine IBZKPT returns following result:
 ===========================================
 
 Found      1 irreducible k-points:
 
 Following reciprocal coordinates:
            Coordinates               Weight
  0.000000  0.000000  0.000000      1.000000
 
 Following cartesian coordinates:
            Coordinates               Weight
  0.000000  0.000000  0.000000      1.000000
 
 
 Subroutine IBZKPT_HF returns following result:
 ==============================================
 
 Found      1 k-points in 1st BZ
 the following      1 k-points will be used (e.g. in the exchange kernel)
 Following reciprocal coordinates:   # in IRBZ
  0.000000  0.000000  0.000000       1 t-inv F


--------------------------------------------------------------------------------------------------------




 Dimension of arrays:
   k-points           NKPTS =      1   k-points in BZ     NKDIM =      1   number of bands    NBANDS=     48
   number of dos      NEDOS =    301   number of ions     NIONS =      8
   non local maximal  LDIM  =      4   non local SUM 2l+1 LMDIM =      8
   total plane-waves  NPLWV =  21952
   max r-space proj   IRMAX =      1   max aug-charges    IRDMAX=  36071
   dimension x,y,z NGX =    28 NGY =   28 NGZ =   28
   dimension x,y,z NGXF=    56 NGYF=   56 NGZF=   56
   support grid    NGXF=   112 NGYF=  112 NGZF=  112
   ions per type =               8
 NGX,Y,Z   is equivalent  to a cutoff of   8.51,  8.51,  8.51 a.u.
 NGXF,Y,Z  is equivalent  to a cutoff of  17.02, 17.02, 17.02 a.u.


 I would recommend the setting:
   dimension x,y,z NGX =    19 NGY =   19 NGZ =   19
 SYSTEM =  NAPTHA04                                
 POSCAR =  OUTCAR.0022.+1.out 1.0e-02              

 Startparameter for this run:
   NWRITE =      3    write-flag & timer
   PREC   = normal    normal or accurate (medium, high low for compatibility)
   ISTART =      0    job   : 0-new  1-cont  2-samecut
   ICHARG =      2    charge: 1-file 2-atom 10-const
   ISPIN  =      1    spin polarized calculation?
   LNONCOLLINEAR =      F non collinear calculations
   LSORBIT =      F    spin-orbit coupling
   INIWAV =      1    electr: 0-lowe 1-rand  2-diag
   LASPH  =      F    aspherical Exc in radial PAW
   METAGGA=      F    non-selfconsistent MetaGGA calc.

 Electronic Relaxation 1
   ENCUT  =  200.0 eV  14.70 Ry    3.83 a.u.   6.31  6.31  6.31*2*pi/ulx,y,z
   ENINI  =  200.0     initial cutoff
   ENAUG  =  322.1 eV  augmentation charge cutoff
   NELM   =     60;   NELMIN=  2; NELMDL= -5     # of ELM steps 
   EDIFF  = 0.1E-07   stopping-criterion for ELM
   LREAL  =      F    real-space projection
   NLSPLINE    = F    spline interpolate recip. space projectors
   LCOMPAT=      F    compatible to vasp.4.4
   GGA_COMPAT  = T    GGA compatible to vasp.4.4-vasp.4.6
   LMAXPAW     = -100 max onsite density
   LMAXMIX     =    2 max onsite mixed and CHGCAR
   VOSKOWN=      0    Vosko Wilk Nusair interpolation
   ROPT   =    0.00000
 Ionic relaxation
   EDIFFG = 0.1E-06   stopping-criterion for IOM
   NSW    =      0    number of steps for IOM
   NBLOCK =      1;   KBLOCK =      1    inner block; outer block 
   IBRION =     -1    ionic relax: 0-MD 1-quasi-New 2-CG
   NFREE  =      0    steps in history (QN), initial steepest desc. (CG)
   ISIF   =      2    stress and relaxation
   IWAVPR =     10    prediction:  0-non 1-charg 2-wave 3-comb
   ISYM   =      2    0-nonsym 1-usesym 2-fastsym
   LCORR  =      T    Harris-Foulkes like correction to forces

   POTIM  = 0.5000    time-step for ionic-motion
   TEIN   =    0.0    initial temperature
   TEBEG  =    0.0;   TEEND  =   0.0 temperature during run
   SMASS  =  -3.00    Nose mass-parameter (am)
   estimated Nose-frequenzy (Omega)   =  0.10E-29 period in steps =****** mass=  -0.684E-27a.u.
   SCALEE = 1.0000    scale energy and forces
   NPACO  =    256;   APACO  = 16.0  distance and # of slots for P.C.
   PSTRESS=    0.0 pullay stress

  Mass of Ions in am
   POMASS =  28.09
  Ionic Valenz
   ZVAL   =   4.00
  Atomic Wigner-Seitz radii
   RWIGS  =  -1.00
  virtual crystal weights 
   VCA    =   1.00
   NELECT =      32.0000    total number of electrons
   NUPDOWN=      -1.0000    fix difference up-down

 DOS related values:
   EMIN   =  10.00;   EMAX   =-10.00  energy-range for DOS
   EFERMI =   0.00
   ISMEAR =     0;   SIGMA  =   0.02  broadening in eV -4-tet -1-fermi 0-gaus

 Electronic relaxation 2 (details)
   IALGO  =     68    algorithm
   LDIAG  =      T    sub-space diagonalisation (order eigenvalues)
   LSUBROT=      T    optimize rotation matrix (better conditioning)
   TURBO    =      0    0=normal 1=particle mesh
   IRESTART =      0    0=no restart 2=restart with 2 vectors
   NREBOOT  =      0    no. of reboots
   NMIN     =      0    reboot dimension
   EREF     =   0.00    reference energy to select bands
   IMIX   =      4    mixing-type and parameters
     AMIX     =   0.40;   BMIX     =  1.00
     AMIX_MAG =   1.60;   BMIX_MAG =  1.00
     AMIN     =   0.10
     WC   =   100.;   INIMIX=   1;  MIXPRE=   1;  MAXMIX= -45

 Intra band minimization:
   WEIMIN = 0.0000     energy-eigenvalue tresh-hold
   EBREAK =  0.52E-10  absolut break condition
   DEPER  =   0.30     relativ break condition  

   TIME   =   0.40     timestep for ELM

  volume/ion in A,a.u.               =      20.46       138.06
  Fermi-wavevector in a.u.,A,eV,Ry     =   0.950176  1.795573 12.283814  0.902835
  Thomas-Fermi vector in A             =   2.078528
 
 Write flags
   LWAVE  =      F    write WAVECAR
   LCHARG =      F    write CHGCAR
   LVTOT  =      F    write LOCPOT, total local potential
   LVHAR  =      F    write LOCPOT, Hartree potential only
   LELF   =      F    write electronic localiz. function (ELF)
   LORBIT =      0    0 simple, 1 ext, 2 COOP (PROOUT)


 Dipole corrections
   LMONO  =      F    monopole corrections only (constant potential shift)
   LDIPOL =      F    correct potential (dipole corrections)
   IDIPOL =      0    1-x, 2-y, 3-z, 4-all directions 
   EPSILON=  1.0000000 bulk dielectric constant

 Exchange correlation treatment:
   GGA     =    --    GGA type
   LEXCH   =     7    internal setting for exchange type
   VOSKOWN=      0    Vosko Wilk Nusair interpolation
   LHFCALC =     F    Hartree Fock is set to
   LHFONE  =     F    Hartree Fock one center treatment
   AEXX    =    0.0000 exact exchange contribution

 Linear response parameters
   LEPSILON=     T    determine dielectric tensor
   LRPA    =     F    only Hartree local field effects (RPA)
   LNABLA  =     F    use nabla operator in PAW spheres
   LVEL    =     F    velocity operator in full k-point grid
   LINTERFAST=   F  fast interpolation
   KINTER  =     0    interpolate to denser k-point grid
   CSHIFT  =0.1000    complex shift for real part using Kramers Kronig
   OMEGAMAX=  -1.0    maximum frequency
   DEG_THRESHOLD= 0.2000000E-02 threshold for treating states as degnerate
   RTIME   =    0.100 relaxation time in fs

 Orbital magnetization related:
   ORBITALMAG=     F  switch on orbital magnetization
   LCHIMAG   =     F  perturbation theory with respect to B field
   DQ        =  0.001000  dq finite difference perturbation B field



--------------------------------------------------------------------------------------------------------


 Static calculation
 charge density and potential will be updated during run
 non-spin polarized calculation
 RMM-DIIS sequential band-by-band and
  variant of blocked Davidson during initial phase
 perform sub-space diagonalisation
    before iterative eigenvector-optimisation
 modified Broyden-mixing scheme, WC =      100.0
 initial mixing is a Kerker type mixing with AMIX =  0.4000 and BMIX =      1.0000
 Hartree-type preconditioning will be used
 using additional bands           32
 reciprocal scheme for non local part
 use partial core corrections
 calculate Harris-corrections to forces 
   (improved forces if not selfconsistent)
 use gradient corrections 
 use of overlap-Matrix (Vanderbilt PP)
 Gauss-broadening in eV      SIGMA  =   0.02


--------------------------------------------------------------------------------------------------------


  energy-cutoff  :      200.00
  volume of cell :      163.67
      direct lattice vectors                 reciprocal lattice vectors
     5.470000000  0.000000000  0.000000000     0.182815356  0.000000000  0.000000000
     0.000000000  5.470000000  0.000000000     0.000000000  0.182815356  0.000000000
     0.000000000  0.000000000  5.470000000     0.000000000  0.000000000  0.182815356

  length of vectors
     5.470000000  5.470000000  5.470000000     0.182815356  0.182815356  0.182815356


 
 k-points in units of 2pi/SCALE and weight: Automatic mesh                          
   0.00000000  0.00000000  0.00000000       1.000
 
 k-points in reciprocal lattice and weights: Automatic mesh                          
   0.00000000  0.00000000  0.00000000       1.000
 
 position of ions in fractional coordinates (direct lattice) 
   0.00042661  0.00066322  0.99970689
   0.25066322  0.24970689  0.24964962
   0.49970689  0.49964962  0.00016182
   0.74964962  0.75016182  0.24985322
   0.50016182  0.99985322  0.50014217
   0.74985322  0.25014217  0.75001440
   0.00014217  0.50001440  0.50064670
   0.25001440  0.75064670  0.74921673
 
 position of ions in cartesian coordinates  (Angst):
   0.00233354  0.00362781  5.46839670
   1.37112781  1.36589670  1.36558344
   2.73339670  2.73308344  0.00088516
   4.10058344  4.10338516  1.36669710
   2.73588516  5.46919710  2.73577765
   4.10169710  1.36827765  4.10257879
   0.00077765  2.73507879  2.73853745
   1.36757879  4.10603745  4.09821552
 


--------------------------------------------------------------------------------------------------------


 k-point  1 :   0.0000 0.0000 0.0000  plane waves:    1021

 maximum and minimum number of plane-waves per node :      1021     1021

 maximum number of plane-waves:      1021
 maximum index in each direction: 
   IXMAX=    6   IYMAX=    6   IZMAX=    6
   IXMIN=   -6   IYMIN=   -6   IZMIN=   -6

 NGX is ok and might be reduce to  26
 NGY is ok and might be reduce to  26
 NGZ is ok and might be reduce to  26

 serial   3D FFT for wavefunctions
 parallel 3D FFT for charge:
    minimum data exchange during FFTs selected (reduces bandwidth)


 total amount of memory used by VASP on root node    32224. kBytes
========================================================================

   base      :      30000. kBytes
   nonl-proj :        202. kBytes
   fftplans  :        782. kBytes
   grid      :       1198. kBytes
   one-center:         24. kBytes
   wavefun   :         18. kBytes
 
 Broyden mixing: mesh for mixing (old mesh)
   NGX = 13   NGY = 13   NGZ = 13
  (NGX  = 56   NGY  = 56   NGZ  = 56)
  gives a total of   2197 points

 initial charge density was supplied:
 charge density of overlapping atoms calculated
 number of electron      32.0000000 magnetization 
 keeping initial charge density in first step


--------------------------------------------------------------------------------------------------------


 Maximum index for augmentation-charges         1782 (set IRDMAX)


--------------------------------------------------------------------------------------------------------


 First call to EWALD:  gamma=   0.324
 Maximum number of real-space cells 3x 3x 3
 Maximum number of reciprocal cells 3x 3x 3

 FEWALD executed in parallel
    FEWALD:  cpu time    0.00: real time    0.00


----------------------------------------- Iteration    1(   1)  ---------------------------------------


    POTLOK:  cpu time    0.03: real time    0.03
    SETDIJ:  cpu time    0.02: real time    0.02
     EDDAV:  cpu time    0.41: real time    0.41
       DOS:  cpu time    0.00: real time    0.00
    --------------------------------------------
      LOOP:  cpu time    0.46: real time    0.48

 eigenvalue-minimisations  :    96
 total energy-change (2. order) :-0.1013743E+02  (-0.7956230E+03)
 number of electron      32.0000000 magnetization 
 augmentation part       32.0000000 magnetization 

 Free energy of the ion-electron system (eV)
  ---------------------------------------------------
  alpha Z        PSCENC =        12.68944982
  Ewald energy   TEWEN  =      -907.56566129
  -1/2 Hartree   DENC   =       -45.63688101
  -exchange  EXHF       =         0.00000000
  -V(xc)+E(xc)   XCENC  =       -76.79669660
  PAW double counting   =       265.93453375     -123.69690146
  entropy T*S    EENTRO =        -0.00012449
  eigenvalues    EBANDS =        38.56086726
  atomic energy  EATOM  =       826.37398168
  ---------------------------------------------------
  free energy    TOTEN  =       -10.13743233 eV

  energy without entropy =      -10.13730784  energy(sigma->0) =      -10.13737009


--------------------------------------------------------------------------------------------------------




 average (electrostatic) potential at core
  the test charge radii are     0.9892
  (the norm of the test charge is              1.0000)
       1 -84.3494       2 -84.3523       3 -84.3505       4 -84.3444       5 -84.3567
       6 -84.3533       7 -84.3460       8 -84.3526
 
 
 
 E-fermi :   6.6077     XC(G=0):  -9.5533     alpha+bet :-11.7379


 k-point   1 :       0.0000    0.0000    0.0000
  band No.  band energies     occupation 
      1      -6.5896      2.00000
      2      -2.4129      2.00000
      3      -2.2564      2.00000
      4      -2.1139      2.00000
      5      -2.0277      2.00000
      6      -1.8708      2.00000
      7      -1.6866      2.00000
      8       2.7427      2.00000
      9       2.8487      2.00000
     10       2.9979      2.00000
     11       3.1602      2.00000
     12       3.3459      2.00000
     13       4.0761      2.00000
     14       6.1380      2.00000
     15       6.3666      2.00000
     16       6.5621      1.99874
     17       6.6533      0.00126
     18       6.8056      0.00000
     19       6.9079      0.00000
     20       7.1730      0.00000
     21       7.3847      0.00000
     22       8.0401      0.00000
     23       8.9806      0.00000
     24       9.3688      0.00000
     25      10.4547      0.00000
     26      11.4480      0.00000
     27      13.5069      0.00000
     28      14.7759      0.00000
     29      16.5646      0.00000
     30      16.8912      0.00000
     31      17.3576      0.00000
     32      17.5842      0.00000
     33      17.9290      0.00000
     34      18.1264      0.00000
     35      18.4987      0.00000
     36      18.8702      0.00000
     37      19.3727      0.00000
     38      19.5128      0.00000
     39      19.8585      0.00000
     40      20.2471      0.00000
     41      21.0952      0.00000
     42      21.6821      0.00000
     43      22.1766      0.00000
     44      22.7678      0.00000
     45      23.9044      0.00000
     46      24.4000      0.00000
     47      24.8264      0.00000
     48      25.8352      0.00000


--------------------------------------------------------------------------------------------------------


 soft charge-density along one line, spin component           1
         0         1         2         3         4         5         6         7         8         9
 total charge-density along one line
 
 pseudopotential strength for first ion, spin component:           1
 18.662   0.000   0.000   0.000   0.000   0.000   0.000   0.000
  0.000   0.006   0.000   0.000   0.000   0.000   0.000   0.000
  0.000   0.000   4.216   0.000   0.000  -0.004   0.000   0.000
  0.000   0.000   0.000   4.216   0.000   0.000  -0.004   0.000
  0.000   0.000   0.000   0.000   4.216   0.000   0.000  -0.004
  0.000   0.000  -0.004   0.000   0.000   0.005   0.000   0.000
  0.000   0.000   0.000  -0.004   0.000   0.000   0.005   0.000
  0.000   0.000   0.000   0.000  -0.004   0.000   0.000   0.005
 total augmentation occupancy for first ion, spin component:           1
  2.000   0.000   0.000   0.000   0.000   0.000   0.000   0.000
  0.000   0.000   0.000   0.000   0.000   0.000   0.000   0.000
  0.000   0.000   0.667   0.000   0.000   0.000   0.000   0.000
  0.000   0.000   0.000   0.667   0.000   0.000   0.000   0.000
  0.000   0.000   0.000   0.000   0.667   0.000   0.000   0.000
  0.000   0.000   0.000   0.000   0.000   0.000   0.000   0.000
  0.000   0.000   0.000   0.000   0.000   0.000   0.000   0.000
  0.000   0.000   0.000   0.000   0.000   0.000   0.000   0.000


----------------------------------------- Iteration    1(   2)  ---------------------------------------


     EDDAV:  cpu time    0.97: real time    0.98
       DOS:  cpu time    0.00: real time    0.00
    --------------------------------------------
      LOOP:  cpu time    0.98: real time    0.98

 eigenvalue-minimisations  :   144
 total energy-change (2. order) :-0.2431252E+02  (-0.2431133E+02)
 number of electron      32.0000000 magnetization 
 augmentation part       32.0000000 magnetization 

 Free energy of the ion-electron system (eV)
  ---------------------------------------------------
  alpha Z        PSCENC =        12.68944982
  Ewald energy   TEWEN  =      -907.56566129
  -1/2 Hartree   DENC   =       -45.63688101
  -exchange  EXHF       =         0.00000000
  -V(xc)+E(xc)   XCENC  =       -76.79669660
  PAW double counting   =       265.93453375     -123.69690146
  entropy T*S    EENTRO =         0.00000000
  eigenvalues    EBANDS =        14.24822194
  atomic energy  EATOM  =       826.37398168
  ---------------------------------------------------
  free energy    TOTEN  =       -34.44995316 eV

  energy without entropy =      -34.44995316  energy(sigma->0) =      -34.44995316


--------------------------------------------------------------------------------------------------------




 average (electrostatic) potential at core
  the test charge radii are     0.9892
  (the norm of the test charge is              1.0000)
       1 -84.3494       2 -84.3523       3 -84.3505       4 -84.3444       5 -84.3567
       6 -84.3533       7 -84.3460       8 -84.3526
 
 
 
 E-fermi :   5.2516     XC(G=0):  -9.5533     alpha+bet :-11.7379


 k-point   1 :       0.0000    0.0000    0.0000
  band No.  band energies     occupation 
      1      -6.6372      2.00000
      2      -2.6496      2.00000
      3      -2.6401      2.00000
      4      -2.6330      2.00000
      5      -2.6266      2.00000
      6      -2.6158      2.00000
      7      -2.6102      2.00000
      8       2.3734      2.00000
      9       2.3762      2.00000
     10       2.3812      2.00000
     11       2.3839      2.00000
     12       2.3881      2.00000
     13       2.3932      2.00000
     14       5.0683      2.00000
     15       5.0764      2.00000
     16       5.0957      2.00000
     17       6.1409      0.00000
     18       6.1512      0.00000
     19       6.1544      0.00000
     20       6.1591      0.00000
     21       6.1638      0.00000
     22       6.1702      0.00000
     23       7.8487      0.00000
     24       7.8558      0.00000
     25       7.8672      0.00000
     26       8.1266      0.00000
     27      13.2007      0.00000
     28      13.2621      0.00000
     29      13.2699      0.00000
     30      15.1008      0.00000
     31      15.1323      0.00000
     32      15.1722      0.00000
     33      15.2526      0.00000
     34      15.3099      0.00000
     35      15.6339      0.00000
     36      16.3705      0.00000
     37      16.4213      0.00000
     38      16.4580      0.00000
     39      16.5364      0.00000
     40      16.7174      0.00000
     41      16.7502      0.00000
     42      16.7651      0.00000
     43      16.8643      0.00000
     44      17.2324      0.00000
     45      17.9057      0.00000
     46      17.9557      0.00000
     47      17.9893      0.00000
     48      18.0219      0.00000


--------------------------------------------------------------------------------------------------------


 soft charge-density along one line, spin component           1
         0         1         2         3         4         5         6         7         8         9
 total charge-density along one line
 
 pseudopotential strength for first ion, spin component:           1
 18.662   0.000   0.000   0.000   0.000   0.000   0.000   0.000
  0.000   0.006   0.000   0.000   0.000   0.000   0.000   0.000
  0.000   0.000   4.216   0.000   0.000  -0.004   0.000   0.000
  0.000   0.000   0.000   4.216   0.000   0.000  -0.004   0.000
  0.000   0.000   0.000   0.000   4.216   0.000   0.000  -0.004
  0.000   0.000  -0.004   0.000   0.000   0.005   0.000   0.000
  0.000   0.000   0.000  -0.004   0.000   0.000   0.005   0.000
  0.000   0.000   0.000   0.000  -0.004   0.000   0.000   0.005
 total augmentation occupancy for first ion, spin component:           1
  2.000   0.000   0.000   0.000   0.000   0.000   0.000   0.000
  0.000   0.000   0.000   0.000   0.000   0.000   0.000   0.000
  0.000   0.000   0.667   0.000   0.000   0.000   0.000   0.000
  0.000   0.000   0.000   0.667   0.000   0.000   0.000   0.000
  0.000   0.000   0.000   0.000   0.667   0.000   0.000   0.000
  0.000   0.000   0.000   0.000   0.000   0.000   0.000   0.000
  0.000   0.000   0.000   0.000   0.000   0.000   0.000   0.000
  0.000   0.000   0.000   0.000   0.000   0.000   0.000   0.000


----------------------------------------- Iteration    1(   3)  ---------------------------------------


     EDDAV:  cpu time    0.40: real time    0.40
       DOS:  cpu time    0.00: real time    0.00
    --------------------------------------------
      LOOP:  cpu time    0.40: real time    0.40

 eigenvalue-minimisations  :    96
 total energy-change (2. order) :-0.1674343E+00  (-0.1674343E+00)
 number of electron      32.0000000 magnetization 
 augmentation part       32.0000000 magnetization 

 Free energy of the ion-electron system (eV)
  ---------------------------------------------------
  alpha Z        PSCENC =        12.68944982
  Ewald energy   TEWEN  =      -907.56566129
  -1/2 Hartree   DENC   =       -45.63688101
  -exchange  EXHF       =         0.00000000
  -V(xc)+E(xc)   XCENC  =       -76.79669660
  PAW double counting   =       265.93453375     -123.69690146
  entropy T*S    EENTRO =         0.00000000
  eigenvalues    EBANDS =        14.08078767
  atomic energy  EATOM  =       826.37398168
  ---------------------------------------------------
  free energy    TOTEN  =       -34.61738744 eV

  energy without entropy =      -34.61738744  energy(sigma->0) =      -34.61738744


--------------------------------------------------------------------------------------------------------




 average (electrostatic) potential at core
  the test charge radii are     0.9892
  (the norm of the test charge is              1.0000)
       1 -84.3494       2 -84.3523       3 -84.3505       4 -84.3444       5 -84.3567
       6 -84.3533       7 -84.3460       8 -84.3526
 
 
 
 E-fermi :   5.2248     XC(G=0):  -9.5533     alpha+bet :-11.7379


 k-point   1 :       0.0000    0.0000    0.0000
  band No.  band energies     occupation 
      1      -6.6372      2.00000
      2      -2.6515      2.00000
      3      -2.6433      2.00000
      4      -2.6348      2.00000
      5      -2.6286      2.00000
      6      -2.6180      2.00000
      7      -2.6120      2.00000
      8       2.3682      2.00000
      9       2.3742      2.00000
     10       2.3771      2.00000
     11       2.3778      2.00000
     12       2.3802      2.00000
     13       2.3883      2.00000
     14       5.0529      2.00000
     15       5.0658      2.00000
     16       5.0813      2.00000
     17       6.1381      0.00000
     18       6.1479      0.00000
     19       6.1517      0.00000
     20       6.1556      0.00000
     21       6.1586      0.00000
     22       6.1673      0.00000
     23       7.8414      0.00000
     24       7.8500      0.00000
     25       7.8572      0.00000
     26       8.1178      0.00000
     27      13.1845      0.00000
     28      13.1866      0.00000
     29      13.2693      0.00000
     30      15.0817      0.00000
     31      15.0897      0.00000
     32      15.0937      0.00000
     33      15.1148      0.00000
     34      15.1273      0.00000
     35      15.1784      0.00000
     36      16.3079      0.00000
     37      16.3289      0.00000
     38      16.3473      0.00000
     39      16.3638      0.00000
     40      16.4294      0.00000
     41      16.4913      0.00000
     42      16.7056      0.00000
     43      16.7249      0.00000
     44      16.8169      0.00000
     45      17.8792      0.00000
     46      17.8910      0.00000
     47      17.9186      0.00000
     48      17.9430      0.00000


--------------------------------------------------------------------------------------------------------


 soft charge-density along one line, spin component           1
         0         1         2         3         4         5         6         7         8         9
 total charge-density along one line
 
 pseudopotential strength for first ion, spin component:           1
 18.662   0.000   0.000   0.000   0.000   0.000   0.000   0.000
  0.000   0.006   0.000   0.000   0.000   0.000   0.000   0.000
  0.000   0.000   4.216   0.000   0.000  -0.004   0.000   0.000
  0.000   0.000   0.000   4.216   0.000   0.000  -0.004   0.000
  0.000   0.000   0.000   0.000   4.216   0.000   0.000  -0.004
  0.000   0.000  -0.004   0.000   0.000   0.005   0.000   0.000
  0.000   0.000   0.000  -0.004   0.000   0.000   0.005   0.000
  0.000   0.000   0.000   0.000  -0.004   0.000   0.000   0.005
 total augmentation occupancy for first ion, spin component:           1
  2.000   0.000   0.000   0.000   0.000   0.000   0.000   0.000
  0.000   0.000   0.000   0.000   0.000   0.000   0.000   0.000
  0.000   0.000   0.667   0.000   0.000   0.000   0.000   0.000
  0.000   0.000   0.000   0.667   0.000   0.000   0.000   0.000
  0.000   0.000   0.000   0.000   0.667   0.000   0.000   0.000
  0.000   0.000   0.000   0.000   0.000   0.000   0.000   0.000
  0.000   0.000   0.000   0.000   0.000   0.000   0.000   0.000
  0.000   0.000   0.000   0.000   0.000   0.000   0.000   0.000


----------------------------------------- Iteration    1(   4)  ---------------------------------------


     EDDAV:  cpu time    2.03: real time    2.04
       DOS:  cpu time    0.00: real time    0.00
    --------------------------------------------
      LOOP:  cpu time    2.04: real time    2.04

 eigenvalue-minimisations  :   192
 total energy-change (2. order) :-0.3540694E-03  (-0.3540694E-03)
 number of electron      32.0000000 magnetization 
 augmentation part       32.0000000 magnetization 

 Free energy of the ion-electron system (eV)
  ---------------------------------------------------
  alpha Z        PSCENC =        12.68944982
  Ewald energy   TEWEN  =      -907.56566129
  -1/2 Hartree   DENC   =       -45.63688101
  -exchange  EXHF       =         0.00000000
  -V(xc)+E(xc)   XCENC  =       -76.79669660
  PAW double counting   =       265.93453375     -123.69690146
  entropy T*S    EENTRO =         0.00000000
  eigenvalues    EBANDS =        14.08043360
  atomic energy  EATOM  =       826.37398168
  ---------------------------------------------------
  free energy    TOTEN  =       -34.61774150 eV

  energy without entropy =      -34.61774150  energy(sigma->0) =      -34.61774150


--------------------------------------------------------------------------------------------------------




 average (electrostatic) potential at core
  the test charge radii are     0.9892
  (the norm of the test charge is              1.0000)
       1 -84.3494       2 -84.3523       3 -84.3505       4 -84.3444       5 -84.3567
       6 -84.3533       7 -84.3460       8 -84.3526
 
 
 
 E-fermi :   5.2016     XC(G=0):  -9.5533     alpha+bet :-11.7379


 k-point   1 :       0.0000    0.0000    0.0000
  band No.  band energies     occupation 
      1      -6.6372      2.00000
      2      -2.6515      2.00000
      3      -2.6433      2.00000
      4      -2.6348      2.00000
      5      -2.6286      2.00000
      6      -2.6180      2.00000
      7      -2.6120      2.00000
      8       2.3682      2.00000
      9       2.3742      2.00000
     10       2.3771      2.00000
     11       2.3778      2.00000
     12       2.3802      2.00000
     13       2.3883      2.00000
     14       5.0529      2.00000
     15       5.0658      2.00000
     16       5.0813      2.00000
     17       6.1381      0.00000
     18       6.1479      0.00000
     19       6.1517      0.00000
     20       6.1555      0.00000
     21       6.1585      0.00000
     22       6.1673      0.00000
     23       7.8414      0.00000
     24       7.8500      0.00000
     25       7.8572      0.00000
     26       8.1178      0.00000
     27      13.1837      0.00000
     28      13.1838      0.00000
     29      13.2693      0.00000
     30      15.0697      0.00000
     31      15.0816      0.00000
     32      15.0851      0.00000
     33      15.0853      0.00000
     34      15.0909      0.00000
     35      15.0961      0.00000
     36      16.2942      0.00000
     37      16.2991      0.00000
     38      16.3074      0.00000
     39      16.3103      0.00000
     40      16.3196      0.00000
     41      16.3314      0.00000
     42      16.6954      0.00000
     43      16.7050      0.00000
     44      16.7129      0.00000
     45      17.8667      0.00000
     46      17.8768      0.00000
     47      17.8846      0.00000
     48      17.8950      0.00000


--------------------------------------------------------------------------------------------------------


 soft charge-density along one line, spin component           1
         0         1         2         3         4         5         6         7         8         9
 total charge-density along one line
 
 pseudopotential strength for first ion, spin component:           1
 18.662   0.000   0.000   0.000   0.000   0.000   0.000   0.000
  0.000   0.006   0.000   0.000   0.000   0.000   0.000   0.000
  0.000   0.000   4.216   0.000   0.000  -0.004   0.000   0.000
  0.000   0.000   0.000   4.216   0.000   0.000  -0.004   0.000
  0.000   0.000   0.000   0.000   4.216   0.000   0.000  -0.004
  0.000   0.000  -0.004   0.000   0.000   0.005   0.000   0.000
  0.000   0.000   0.000  -0.004   0.000   0.000   0.005   0.000
  0.000   0.000   0.000   0.000  -0.004   0.000   0.000   0.005
 total augmentation occupancy for first ion, spin component:           1
  2.000   0.000   0.000   0.000   0.000   0.000   0.000   0.000
  0.000   0.000   0.000   0.000   0.000   0.000   0.000   0.000
  0.000   0.000   0.667   0.000   0.000   0.000   0.000   0.000
  0.000   0.000   0.000   0.667   0.000   0.000   0.000   0.000
  0.000   0.000   0.000   0.000   0.667   0.000   0.000   0.000
  0.000   0.000   0.000   0.000   0.000   0.000   0.000   0.000
  0.000   0.000   0.000   0.000   0.000   0.000   0.000   0.000
  0.000   0.000   0.000   0.000   0.000   0.000   0.000   0.000


----------------------------------------- Iteration    1(   5)  ---------------------------------------


     EDDAV:  cpu time    0.39: real time    0.39
       DOS:  cpu time    0.00: real time    0.00
    CHARGE:  cpu time    0.02: real time    0.02
    MIXING:  cpu time    0.00: real time    0.00
    --------------------------------------------
      LOOP:  cpu time    0.43: real time    0.43

 eigenvalue-minimisations  :    96
 total energy-change (2. order) :-0.3035893E-08  (-0.3036834E-08)
 number of electron      31.9999999 magnetization 
 augmentation part       -1.8053383 magnetization 

 Broyden mixing:
  rms(total) = 0.79306E+00    rms(broyden)= 0.79301E+00
  rms(prec ) = 0.15229E+01
  weight for this iteration     100.00

 Free energy of the ion-electron system (eV)
  ---------------------------------------------------
  alpha Z        PSCENC =        12.68944982
  Ewald energy   TEWEN  =      -907.56566129
  -1/2 Hartree   DENC   =       -45.63688101
  -exchange  EXHF       =         0.00000000
  -V(xc)+E(xc)   XCENC  =       -76.79669660
  PAW double counting   =       265.93453375     -123.69690146
  entropy T*S    EENTRO =         0.00000000
  eigenvalues    EBANDS =        14.08043360
  atomic energy  EATOM  =       826.37398168
  ---------------------------------------------------
  free energy    TOTEN  =       -34.61774151 eV

  energy without entropy =      -34.61774151  energy(sigma->0) =      -34.61774151


--------------------------------------------------------------------------------------------------------




 average (electrostatic) potential at core
  the test charge radii are     0.9892
  (the norm of the test charge is              1.0000)
       1 -84.3494       2 -84.3523       3 -84.3505       4 -84.3444       5 -84.3567
       6 -84.3533       7 -84.3460       8 -84.3526
 
 
 
 E-fermi :   5.1965     XC(G=0):  -9.5533     alpha+bet :-11.7379


 k-point   1 :       0.0000    0.0000    0.0000
  band No.  band energies     occupation 
      1      -6.6372      2.00000
      2      -2.6515      2.00000
      3      -2.6433      2.00000
      4      -2.6348      2.00000
      5      -2.6286      2.00000
      6      -2.6180      2.00000
      7      -2.6120      2.00000
      8       2.3682      2.00000
      9       2.3742      2.00000
     10       2.3771      2.00000
     11       2.3778      2.00000
     12       2.3802      2.00000
     13       2.3883      2.00000
     14       5.0529      2.00000
     15       5.0658      2.00000
     16       5.0813      2.00000
     17       6.1381      0.00000
     18       6.1479      0.00000
     19       6.1517      0.00000
     20       6.1555      0.00000
     21       6.1585      0.00000
     22       6.1673      0.00000
     23       7.8414      0.00000
     24       7.8500      0.00000
     25       7.8572      0.00000
     26       8.1178      0.00000
     27      13.1837      0.00000
     28      13.1838      0.00000
     29      13.2693      0.00000
     30      15.0696      0.00000
     31      15.0815      0.00000
     32      15.0850      0.00000
     33      15.0852      0.00000
     34      15.0908      0.00000
     35      15.0961      0.00000
     36      16.2940      0.00000
     37      16.2989      0.00000
     38      16.3071      0.00000
     39      16.3098      0.00000
     40      16.3193      0.00000
     41      16.3310      0.00000
     42      16.6953      0.00000
     43      16.7047      0.00000
     44      16.7128      0.00000
     45      17.8596      0.00000
     46      17.8735      0.00000
     47      17.8759      0.00000
     48      17.8844      0.00000


--------------------------------------------------------------------------------------------------------


 soft charge-density along one line, spin component           1
         0         1         2         3         4         5         6         7         8         9
 total charge-density along one line
 
 pseudopotential strength for first ion, spin component:           1
 18.662   0.000   0.000   0.000   0.000   0.000   0.000   0.000
  0.000   0.006   0.000   0.000   0.000   0.000   0.000   0.000
  0.000   0.000   4.216   0.000   0.000  -0.004   0.000   0.000
  0.000   0.000   0.000   4.216   0.000   0.000  -0.004   0.000
  0.000   0.000   0.000   0.000   4.216   0.000   0.000  -0.004
  0.000   0.000  -0.004   0.000   0.000   0.005   0.000   0.000
  0.000   0.000   0.000  -0.004   0.000   0.000   0.005   0.000
  0.000   0.000   0.000   0.000  -0.004   0.000   0.000   0.005
 total augmentation occupancy for first ion, spin component:           1
  1.380  -1.051   0.002  -0.001   0.001  -0.002   0.001  -0.001
 -1.051   0.918  -0.001   0.000  -0.001   0.002  -0.001   0.001
  0.002  -0.001   1.162   0.001   0.000  -0.756  -0.001   0.000
 -0.001   0.000   0.001   1.165   0.001  -0.001  -0.758  -0.002
  0.001  -0.001   0.000   0.001   1.166   0.000  -0.002  -0.759
 -0.002   0.002  -0.756  -0.001   0.000   0.568   0.002   0.000
  0.001  -0.001  -0.001  -0.758  -0.002   0.002   0.569   0.002
 -0.001   0.001   0.000  -0.002  -0.759   0.000   0.002   0.570


----------------------------------------- Iteration    1(   6)  ---------------------------------------


    POTLOK:  cpu time    0.02: real time    0.02
    SETDIJ:  cpu time    0.02: real time    0.02
    EDDIAG:  cpu time    0.03: real time    0.03
  RMM-DIIS:  cpu time    0.04: real time    0.04
    ORTHCH:  cpu time    0.01: real time    0.01
       DOS:  cpu time    0.00: real time    0.00
    CHARGE:  cpu time    0.02: real time    0.02
    MIXING:  cpu time    0.00: real time    0.00
    --------------------------------------------
      LOOP:  cpu time    0.16: real time    0.16

 eigenvalue-minimisations  :    96
 total energy-change (2. order) : 0.1001753E+01  (-0.3197631E-01)
 number of electron      31.9999999 magnetization 
 augmentation part       -1.7684134 magnetization 

 Broyden mixing:
  rms(total) = 0.47400E+00    rms(broyden)= 0.47400E+00
  rms(prec ) = 0.91067E+00
  weight for this iteration     100.00

 eigenvalues of (default mixing * dielectric matrix)
  average eigenvalue GAMMA=   2.4573
  2.4573

 Free energy of the ion-electron system (eV)
  ---------------------------------------------------
  alpha Z        PSCENC =        12.68944982
  Ewald energy   TEWEN  =      -907.56566129
  -1/2 Hartree   DENC   =       -54.68354055
  -exchange  EXHF       =         0.00000000
  -V(xc)+E(xc)   XCENC  =       -75.44938280
  PAW double counting   =       286.06100543     -144.35932300
  entropy T*S    EENTRO =         0.00000000
  eigenvalues    EBANDS =        23.31748174
  atomic energy  EATOM  =       826.37398168
  ---------------------------------------------------
  free energy    TOTEN  =       -33.61598897 eV

  energy without entropy =      -33.61598897  energy(sigma->0) =      -33.61598897


--------------------------------------------------------------------------------------------------------




 average (electrostatic) potential at core
  the test charge radii are     0.9892
  (the norm of the test charge is              1.0000)
       1 -83.8323       2 -83.8336       3 -83.8328       4 -83.8297       5 -83.8358
       6 -83.8342       7 -83.8305       8 -83.8338
 
 
 
 E-fermi :   5.5606     XC(G=0):  -9.4504     alpha+bet :-11.7379


 k-point   1 :       0.0000    0.0000    0.0000
  band No.  band energies     occupation 
      1      -6.3788      2.00000
      2      -2.3504      2.00000
      3      -2.3424      2.00000
      4      -2.3356      2.00000
      5      -2.3299      2.00000
      6      -2.3215      2.00000
      7      -2.3152      2.00000
      8       2.6302      2.00000
      9       2.6358      2.00000
     10       2.6382      2.00000
     11       2.6388      2.00000
     12       2.6410      2.00000
     13       2.6481      2.00000
     14       5.3866      2.00000
     15       5.3992      2.00000
     16       5.4144      2.00000
     17       6.2537      0.00000
     18       6.2633      0.00000
     19       6.2663      0.00000
     20       6.2694      0.00000
     21       6.2723      0.00000
     22       6.2806      0.00000
     23       8.0486      0.00000
     24       8.0574      0.00000
     25       8.0647      0.00000
     26       8.4862      0.00000
     27      13.3050      0.00000
     28      13.3568      0.00000
     29      13.3569      0.00000
     30      15.3671      0.00000
     31      15.3777      0.00000
     32      15.3812      0.00000
     33      15.3814      0.00000
     34      15.3866      0.00000
     35      15.3914      0.00000
     36      16.5312      0.00000
     37      16.5358      0.00000
     38      16.5432      0.00000
     39      16.5457      0.00000
     40      16.5542      0.00000
     41      16.5649      0.00000
     42      16.7399      0.00000
     43      16.7493      0.00000
     44      16.7576      0.00000
     45      18.1480      0.00000
     46      18.1612      0.00000
     47      18.1643      0.00000
     48      18.1753      0.00000


--------------------------------------------------------------------------------------------------------


 soft charge-density along one line, spin component           1
         0         1         2         3         4         5         6         7         8         9
 total charge-density along one line
 
 pseudopotential strength for first ion, spin component:           1
 18.635  -0.001   0.000   0.000   0.000   0.000   0.000   0.000
 -0.001   0.006   0.000   0.000   0.000   0.000   0.000   0.000
  0.000   0.000   4.221   0.000   0.000  -0.004   0.000   0.000
  0.000   0.000   0.000   4.221   0.000   0.000  -0.004   0.000
  0.000   0.000   0.000   0.000   4.221   0.000   0.000  -0.004
  0.000   0.000  -0.004   0.000   0.000   0.005   0.000   0.000
  0.000   0.000   0.000  -0.004   0.000   0.000   0.005   0.000
  0.000   0.000   0.000   0.000  -0.004   0.000   0.000   0.005
 total augmentation occupancy for first ion, spin component:           1
  1.351  -1.090   0.002  -0.001   0.001  -0.003   0.001  -0.002
 -1.090   0.996  -0.001   0.000   0.000   0.002  -0.001   0.001
  0.002  -0.001   1.145   0.001   0.000  -0.780  -0.001   0.000
 -0.001   0.000   0.001   1.147   0.001  -0.001  -0.782  -0.002
  0.001   0.000   0.000   0.001   1.148   0.000  -0.002  -0.783
 -0.003   0.002  -0.780  -0.001   0.000   0.606   0.002   0.000
  0.001  -0.001  -0.001  -0.782  -0.002   0.002   0.607   0.002
 -0.002   0.001   0.000  -0.002  -0.783   0.000   0.002   0.609


----------------------------------------- Iteration    1(   7)  ---------------------------------------


    POTLOK:  cpu time    0.02: real time    0.02
    SETDIJ:  cpu time    0.02: real time    0.02
    EDDIAG:  cpu time    0.02: real time    0.02
  RMM-DIIS:  cpu time    0.03: real time    0.03
    ORTHCH:  cpu time    0.01: real time    0.01
       DOS:  cpu time    0.00: real time    0.00
    CHARGE:  cpu time    0.02: real time    0.02
    MIXING:  cpu time    0.00: real time    0.00
    --------------------------------------------
      LOOP:  cpu time    0.12: real time    0.13

 eigenvalue-minimisations  :    96
 total energy-change (2. order) : 0.4246900E+00  (-0.7387518E-01)
 number of electron      31.9999999 magnetization 
 augmentation part       -1.7214618 magnetization 

 Broyden mixing:
  rms(total) = 0.46244E-01    rms(broyden)= 0.46234E-01
  rms(prec ) = 0.78449E-01
  weight for this iteration     100.00

 eigenvalues of (default mixing * dielectric matrix)
  average eigenvalue GAMMA=   2.5297
  2.5297  2.5297

 Free energy of the ion-electron system (eV)
  ---------------------------------------------------
  alpha Z        PSCENC =        12.68944982
  Ewald energy   TEWEN  =      -907.56566129
  -1/2 Hartree   DENC   =       -70.51479499
  -exchange  EXHF       =         0.00000000
  -V(xc)+E(xc)   XCENC  =       -73.00922290
  PAW double counting   =       313.72579118     -172.73783176
  entropy T*S    EENTRO =         0.00000000
  eigenvalues    EBANDS =        37.84698925
  atomic energy  EATOM  =       826.37398168
  ---------------------------------------------------
  free energy    TOTEN  =       -33.19129900 eV

  energy without entropy =      -33.19129900  energy(sigma->0) =      -33.19129900


--------------------------------------------------------------------------------------------------------




 average (electrostatic) potential at core
  the test charge radii are     0.9892
  (the norm of the test charge is              1.0000)
       1 -83.1451       2 -83.1461       3 -83.1456       4 -83.1441       5 -83.1473
       6 -83.1461       7 -83.1438       8 -83.1461
 
 
 
 E-fermi :   6.0987     XC(G=0):  -9.2018     alpha+bet :-11.7379


 k-point   1 :       0.0000    0.0000    0.0000
  band No.  band energies     occupation 
      1      -5.9621      2.00000
      2      -1.8820      2.00000
      3      -1.8741      2.00000
      4      -1.8688      2.00000
      5      -1.8636      2.00000
      6      -1.8571      2.00000
      7      -1.8505      2.00000
      8       3.0438      2.00000
      9       3.0489      2.00000
     10       3.0508      2.00000
     11       3.0514      2.00000
     12       3.0534      2.00000
     13       3.0595      2.00000
     14       5.9116      2.00000
     15       5.9238      2.00000
     16       5.9386      2.00000
     17       6.5134      0.00000
     18       6.5228      0.00000
     19       6.5249      0.00000
     20       6.5270      0.00000
     21       6.5299      0.00000
     22       6.5378      0.00000
     23       8.3736      0.00000
     24       8.3825      0.00000
     25       8.3900      0.00000
     26       9.0452      0.00000
     27      13.6013      0.00000
     28      13.6204      0.00000
     29      13.6204      0.00000
     30      15.8183      0.00000
     31      15.8280      0.00000
     32      15.8311      0.00000
     33      15.8313      0.00000
     34      15.8359      0.00000
     35      15.8406      0.00000
     36      16.8937      0.00000
     37      16.9036      0.00000
     38      16.9114      0.00000
     39      16.9519      0.00000
     40      16.9567      0.00000
     41      16.9632      0.00000
     42      16.9651      0.00000
     43      16.9730      0.00000
     44      16.9828      0.00000
     45      18.6469      0.00000
     46      18.6570      0.00000
     47      18.6655      0.00000
     48      18.6791      0.00000


--------------------------------------------------------------------------------------------------------


 soft charge-density along one line, spin component           1
         0         1         2         3         4         5         6         7         8         9
 total charge-density along one line
 
 pseudopotential strength for first ion, spin component:           1
 18.596  -0.001   0.000   0.000   0.000   0.000   0.000   0.000
 -0.001   0.006   0.000   0.000   0.000   0.000   0.000   0.000
  0.000   0.000   4.227   0.000   0.000  -0.005   0.000   0.000
  0.000   0.000   0.000   4.227   0.000   0.000  -0.005   0.000
  0.000   0.000   0.000   0.000   4.227   0.000   0.000  -0.005
  0.000   0.000  -0.005   0.000   0.000   0.005   0.000   0.000
  0.000   0.000   0.000  -0.005   0.000   0.000   0.005   0.000
  0.000   0.000   0.000   0.000  -0.005   0.000   0.000   0.005
 total augmentation occupancy for first ion, spin component:           1
  1.315  -1.111   0.001  -0.001   0.001  -0.003   0.002  -0.002
 -1.111   1.057   0.000  -0.001   0.000   0.002  -0.001   0.001
  0.001   0.000   1.120   0.001  -0.001  -0.803  -0.001   0.000
 -0.001  -0.001   0.001   1.122   0.001  -0.001  -0.805  -0.002
  0.001   0.000  -0.001   0.001   1.124   0.000  -0.002  -0.806
 -0.003   0.002  -0.803  -0.001   0.000   0.650   0.002  -0.001
  0.002  -0.001  -0.001  -0.805  -0.002   0.002   0.651   0.002
 -0.002   0.001   0.000  -0.002  -0.806  -0.001   0.002   0.653


----------------------------------------- Iteration    1(   8)  ---------------------------------------


    POTLOK:  cpu time    0.02: real time    0.02
    SETDIJ:  cpu time    0.02: real time    0.02
    EDDIAG:  cpu time    0.02: real time    0.02
  RMM-DIIS:  cpu time    0.03: real time    0.03
    ORTHCH:  cpu time    0.01: real time    0.01
       DOS:  cpu time    0.00: real time    0.00
    CHARGE:  cpu time    0.02: real time    0.02
    MIXING:  cpu time    0.00: real time    0.00
    --------------------------------------------
      LOOP:  cpu time    0.12: real time    0.13

 eigenvalue-minimisations  :    96
 total energy-change (2. order) :-0.3197624E-01  (-0.2157993E-02)
 number of electron      31.9999999 magnetization 
 augmentation part       -1.7275426 magnetization 

 Broyden mixing:
  rms(total) = 0.74938E-02    rms(broyden)= 0.74933E-02
  rms(prec ) = 0.17962E-01
  weight for this iteration     100.00

 eigenvalues of (default mixing * dielectric matrix)
  average eigenvalue GAMMA=   2.1224
  1.2777  2.8663  2.2231

 Free energy of the ion-electron system (eV)
  ---------------------------------------------------
  alpha Z        PSCENC =        12.68944982
  Ewald energy   TEWEN  =      -907.56566129
  -1/2 Hartree   DENC   =       -70.40068504
  -exchange  EXHF       =         0.00000000
  -V(xc)+E(xc)   XCENC  =       -72.96558546
  PAW double counting   =       307.37025553     -166.19767740
  entropy T*S    EENTRO =         0.00000000
  eigenvalues    EBANDS =        37.47264692
  atomic energy  EATOM  =       826.37398168
  ---------------------------------------------------
  free energy    TOTEN  =       -33.22327524 eV

  energy without entropy =      -33.22327524  energy(sigma->0) =      -33.22327524


--------------------------------------------------------------------------------------------------------




 average (electrostatic) potential at core
  the test charge radii are     0.9892
  (the norm of the test charge is              1.0000)
       1 -83.2474       2 -83.2496       3 -83.2483       4 -83.2438       5 -83.2529
       6 -83.2503       7 -83.2447       8 -83.2497
 
 
 
 E-fermi :   6.0378     XC(G=0):  -9.1504     alpha+bet :-11.7379


 k-point   1 :       0.0000    0.0000    0.0000
  band No.  band energies     occupation 
      1      -5.9632      2.00000
      2      -1.8947      2.00000
      3      -1.8868      2.00000
      4      -1.8806      2.00000
      5      -1.8750      2.00000
      6      -1.8673      2.00000
      7      -1.8609      2.00000
      8       3.0318      2.00000
      9       3.0371      2.00000
     10       3.0393      2.00000
     11       3.0399      2.00000
     12       3.0422      2.00000
     13       3.0486      2.00000
     14       5.8954      2.00000
     15       5.9078      2.00000
     16       5.9226      2.00000
     17       6.5638      0.00000
     18       6.5734      0.00000
     19       6.5757      0.00000
     20       6.5779      0.00000
     21       6.5811      0.00000
     22       6.5891      0.00000
     23       8.3630      0.00000
     24       8.3719      0.00000
     25       8.3793      0.00000
     26       9.0382      0.00000
     27      13.6064      0.00000
     28      13.6065      0.00000
     29      13.7783      0.00000
     30      15.8031      0.00000
     31      15.8136      0.00000
     32      15.8164      0.00000
     33      15.8167      0.00000
     34      15.8212      0.00000
     35      15.8264      0.00000
     36      16.9303      0.00000
     37      16.9400      0.00000
     38      16.9473      0.00000
     39      16.9578      0.00000
     40      16.9633      0.00000
     41      16.9700      0.00000
     42      16.9717      0.00000
     43      16.9801      0.00000
     44      16.9904      0.00000
     45      18.6842      0.00000
     46      18.6933      0.00000
     47      18.7040      0.00000
     48      18.7175      0.00000


--------------------------------------------------------------------------------------------------------


 soft charge-density along one line, spin component           1
         0         1         2         3         4         5         6         7         8         9
 total charge-density along one line
 
 pseudopotential strength for first ion, spin component:           1
 18.599  -0.001   0.000   0.000   0.000   0.000   0.000   0.000
 -0.001   0.006   0.000   0.000   0.000   0.000   0.000   0.000
  0.000   0.000   4.224   0.000   0.000  -0.005   0.000   0.000
  0.000   0.000   0.000   4.224   0.000   0.000  -0.005   0.000
  0.000   0.000   0.000   0.000   4.224   0.000   0.000  -0.005
  0.000   0.000  -0.005   0.000   0.000   0.005   0.000   0.000
  0.000   0.000   0.000  -0.005   0.000   0.000   0.005   0.000
  0.000   0.000   0.000   0.000  -0.005   0.000   0.000   0.005
 total augmentation occupancy for first ion, spin component:           1
  1.320  -1.092   0.002  -0.001   0.001  -0.002   0.001  -0.002
 -1.092   1.020  -0.001   0.000   0.000   0.002  -0.001   0.001
  0.002  -0.001   1.121   0.001   0.000  -0.799  -0.001   0.000
 -0.001   0.000   0.001   1.123   0.001  -0.001  -0.801  -0.002
  0.001   0.000   0.000   0.001   1.125   0.000  -0.002  -0.802
 -0.002   0.002  -0.799  -0.001   0.000   0.645   0.002   0.000
  0.001  -0.001  -0.001  -0.801  -0.002   0.002   0.647   0.002
 -0.002   0.001   0.000  -0.002  -0.802   0.000   0.002   0.648


----------------------------------------- Iteration    1(   9)  ---------------------------------------


    POTLOK:  cpu time    0.02: real time    0.02
    SETDIJ:  cpu time    0.02: real time    0.02
    EDDIAG:  cpu time    0.02: real time    0.02
  RMM-DIIS:  cpu time    0.03: real time    0.04
    ORTHCH:  cpu time    0.01: real time    0.01
       DOS:  cpu time    0.00: real time    0.00
    CHARGE:  cpu time    0.02: real time    0.02
    MIXING:  cpu time    0.00: real time    0.00
    --------------------------------------------
      LOOP:  cpu time    0.13: real time    0.14

 eigenvalue-minimisations  :   106
 total energy-change (2. order) :-0.1142609E-02  (-0.1270331E-03)
 number of electron      31.9999999 magnetization 
 augmentation part       -1.7274628 magnetization 

 Broyden mixing:
  rms(total) = 0.41779E-02    rms(broyden)= 0.41778E-02
  rms(prec ) = 0.68399E-02
  weight for this iteration     100.00

 eigenvalues of (default mixing * dielectric matrix)
  average eigenvalue GAMMA=   2.2746
  0.9840  3.1717  2.6497  2.2930

 Free energy of the ion-electron system (eV)
  ---------------------------------------------------
  alpha Z        PSCENC =        12.68944982
  Ewald energy   TEWEN  =      -907.56566129
  -1/2 Hartree   DENC   =       -70.79758327
  -exchange  EXHF       =         0.00000000
  -V(xc)+E(xc)   XCENC  =       -72.90628535
  PAW double counting   =       307.71815656     -166.55590198
  entropy T*S    EENTRO =         0.00000000
  eigenvalues    EBANDS =        37.81942598
  atomic energy  EATOM  =       826.37398168
  ---------------------------------------------------
  free energy    TOTEN  =       -33.22441785 eV

  energy without entropy =      -33.22441785  energy(sigma->0) =      -33.22441785


--------------------------------------------------------------------------------------------------------




 average (electrostatic) potential at core
  the test charge radii are     0.9892
  (the norm of the test charge is              1.0000)
       1 -83.2335       2 -83.2351       3 -83.2340       4 -83.2305       5 -83.2376
       6 -83.2357       7 -83.2314       8 -83.2352
 
 
 
 E-fermi :   6.0528     XC(G=0):  -9.1362     alpha+bet :-11.7379


 k-point   1 :       0.0000    0.0000    0.0000
  band No.  band energies     occupation 
      1      -5.9519      2.00000
      2      -1.8831      2.00000
      3      -1.8752      2.00000
      4      -1.8693      2.00000
      5      -1.8639      2.00000
      6      -1.8566      2.00000
      7      -1.8502      2.00000
      8       3.0418      2.00000
      9       3.0470      2.00000
     10       3.0492      2.00000
     11       3.0497      2.00000
     12       3.0519      2.00000
     13       3.0582      2.00000
     14       5.9076      2.00000
     15       5.9199      2.00000
     16       5.9346      2.00000
     17       6.5778      0.00000
     18       6.5874      0.00000
     19       6.5898      0.00000
     20       6.5921      0.00000
     21       6.5952      0.00000
     22       6.6033      0.00000
     23       8.3707      0.00000
     24       8.3795      0.00000
     25       8.3869      0.00000
     26       9.0527      0.00000
     27      13.6116      0.00000
     28      13.6117      0.00000
     29      13.8106      0.00000
     30      15.8138      0.00000
     31      15.8240      0.00000
     32      15.8270      0.00000
     33      15.8272      0.00000
     34      15.8318      0.00000
     35      15.8368      0.00000
     36      16.9404      0.00000
     37      16.9501      0.00000
     38      16.9574      0.00000
     39      16.9701      0.00000
     40      16.9755      0.00000
     41      16.9821      0.00000
     42      16.9838      0.00000
     43      16.9922      0.00000
     44      17.0022      0.00000
     45      18.7021      0.00000
     46      18.7112      0.00000
     47      18.7224      0.00000
     48      18.7365      0.00000


--------------------------------------------------------------------------------------------------------


 soft charge-density along one line, spin component           1
         0         1         2         3         4         5         6         7         8         9
 total charge-density along one line
 
 pseudopotential strength for first ion, spin component:           1
 18.598  -0.001   0.000   0.000   0.000   0.000   0.000   0.000
 -0.001   0.006   0.000   0.000   0.000   0.000   0.000   0.000
  0.000   0.000   4.224   0.000   0.000  -0.005   0.000   0.000
  0.000   0.000   0.000   4.224   0.000   0.000  -0.005   0.000
  0.000   0.000   0.000   0.000   4.224   0.000   0.000  -0.005
  0.000   0.000  -0.005   0.000   0.000   0.005   0.000   0.000
  0.000   0.000   0.000  -0.005   0.000   0.000   0.005   0.000
  0.000   0.000   0.000   0.000  -0.005   0.000   0.000   0.005
 total augmentation occupancy for first ion, spin component:           1
  1.320  -1.086   0.002  -0.001   0.001  -0.002   0.001  -0.002
 -1.086   1.011  -0.001   0.000   0.000   0.002  -0.001   0.001
  0.002  -0.001   1.121   0.001  -0.001  -0.799  -0.001   0.000
 -0.001   0.000   0.001   1.123   0.001  -0.001  -0.800  -0.002
  0.001   0.000  -0.001   0.001   1.124   0.000  -0.002  -0.802
 -0.002   0.002  -0.799  -0.001   0.000   0.645   0.002   0.000
  0.001  -0.001  -0.001  -0.800  -0.002   0.002   0.647   0.002
 -0.002   0.001   0.000  -0.002  -0.802   0.000   0.002   0.648


----------------------------------------- Iteration    1(  10)  ---------------------------------------


    POTLOK:  cpu time    0.02: real time    0.02
    SETDIJ:  cpu time    0.02: real time    0.02
    EDDIAG:  cpu time    0.02: real time    0.02
  RMM-DIIS:  cpu time    0.03: real time    0.03
    ORTHCH:  cpu time    0.01: real time    0.01
       DOS:  cpu time    0.00: real time    0.00
    CHARGE:  cpu time    0.02: real time    0.02
    MIXING:  cpu time    0.00: real time    0.00
    --------------------------------------------
      LOOP:  cpu time    0.13: real time    0.14

 eigenvalue-minimisations  :   104
 total energy-change (2. order) :-0.1836506E-03  (-0.2199527E-04)
 number of electron      31.9999999 magnetization 
 augmentation part       -1.7273615 magnetization 

 Broyden mixing:
  rms(total) = 0.39511E-03    rms(broyden)= 0.39464E-03
  rms(prec ) = 0.82163E-03
  weight for this iteration     100.00

 eigenvalues of (default mixing * dielectric matrix)
  average eigenvalue GAMMA=   2.0395
  3.0903  2.6269  2.1609  0.9777  1.3415

 Free energy of the ion-electron system (eV)
  ---------------------------------------------------
  alpha Z        PSCENC =        12.68944982
  Ewald energy   TEWEN  =      -907.56566129
  -1/2 Hartree   DENC   =       -70.84538178
  -exchange  EXHF       =         0.00000000
  -V(xc)+E(xc)   XCENC  =       -72.90936029
  PAW double counting   =       307.79674936     -166.64021039
  entropy T*S    EENTRO =         0.00000000
  eigenvalues    EBANDS =        37.87583138
  atomic energy  EATOM  =       826.37398168
  ---------------------------------------------------
  free energy    TOTEN  =       -33.22460150 eV

  energy without entropy =      -33.22460150  energy(sigma->0) =      -33.22460150


--------------------------------------------------------------------------------------------------------




 average (electrostatic) potential at core
  the test charge radii are     0.9892
  (the norm of the test charge is              1.0000)
       1 -83.2257       2 -83.2268       3 -83.2261       4 -83.2234       5 -83.2287
       6 -83.2273       7 -83.2241       8 -83.2269
 
 
 
 E-fermi :   6.0571     XC(G=0):  -9.1310     alpha+bet :-11.7379


 k-point   1 :       0.0000    0.0000    0.0000
  band No.  band energies     occupation 
      1      -5.9497      2.00000
      2      -1.8810      2.00000
      3      -1.8731      2.00000
      4      -1.8674      2.00000
      5      -1.8620      2.00000
      6      -1.8550      2.00000
      7      -1.8486      2.00000
      8       3.0435      2.00000
      9       3.0486      2.00000
     10       3.0507      2.00000
     11       3.0512      2.00000
     12       3.0534      2.00000
     13       3.0596      2.00000
     14       5.9095      2.00000
     15       5.9218      2.00000
     16       5.9365      2.00000
     17       6.5828      0.00000
     18       6.5924      0.00000
     19       6.5948      0.00000
     20       6.5971      0.00000
     21       6.6002      0.00000
     22       6.6083      0.00000
     23       8.3715      0.00000
     24       8.3804      0.00000
     25       8.3878      0.00000
     26       9.0560      0.00000
     27      13.6116      0.00000
     28      13.6117      0.00000
     29      13.8257      0.00000
     30      15.8156      0.00000
     31      15.8256      0.00000
     32      15.8286      0.00000
     33      15.8289      0.00000
     34      15.8335      0.00000
     35      15.8384      0.00000
     36      16.9442      0.00000
     37      16.9538      0.00000
     38      16.9611      0.00000
     39      16.9727      0.00000
     40      16.9781      0.00000
     41      16.9846      0.00000
     42      16.9863      0.00000
     43      16.9946      0.00000
     44      17.0045      0.00000
     45      18.7088      0.00000
     46      18.7184      0.00000
     47      18.7287      0.00000
     48      18.7429      0.00000


--------------------------------------------------------------------------------------------------------


 soft charge-density along one line, spin component           1
         0         1         2         3         4         5         6         7         8         9
 total charge-density along one line
 
 pseudopotential strength for first ion, spin component:           1
 18.597  -0.001   0.000   0.000   0.000   0.000   0.000   0.000
 -0.001   0.006   0.000   0.000   0.000   0.000   0.000   0.000
  0.000   0.000   4.224   0.000   0.000  -0.005   0.000   0.000
  0.000   0.000   0.000   4.224   0.000   0.000  -0.005   0.000
  0.000   0.000   0.000   0.000   4.224   0.000   0.000  -0.005
  0.000   0.000  -0.005   0.000   0.000   0.005   0.000   0.000
  0.000   0.000   0.000  -0.005   0.000   0.000   0.005   0.000
  0.000   0.000   0.000   0.000  -0.005   0.000   0.000   0.005
 total augmentation occupancy for first ion, spin component:           1
  1.320  -1.086   0.002  -0.001   0.001  -0.002   0.001  -0.002
 -1.086   1.011  -0.001   0.000   0.000   0.002  -0.001   0.001
  0.002  -0.001   1.121   0.001  -0.001  -0.799  -0.001   0.000
 -0.001   0.000   0.001   1.123   0.001  -0.001  -0.801  -0.002
  0.001   0.000  -0.001   0.001   1.124   0.000  -0.002  -0.802
 -0.002   0.002  -0.799  -0.001   0.000   0.646   0.002   0.000
  0.001  -0.001  -0.001  -0.801  -0.002   0.002   0.647   0.002
 -0.002   0.001   0.000  -0.002  -0.802   0.000   0.002   0.648


----------------------------------------- Iteration    1(  11)  ---------------------------------------


    POTLOK:  cpu time    0.02: real time    0.02
    SETDIJ:  cpu time    0.02: real time    0.02
    EDDIAG:  cpu time    0.02: real time    0.02
  RMM-DIIS:  cpu time    0.04: real time    0.04
    ORTHCH:  cpu time    0.01: real time    0.01
       DOS:  cpu time    0.00: real time    0.00
    CHARGE:  cpu time    0.02: real time    0.02
    MIXING:  cpu time    0.00: real time    0.00
    --------------------------------------------
      LOOP:  cpu time    0.14: real time    0.14

 eigenvalue-minimisations  :   116
 total energy-change (2. order) : 0.4062691E-05  (-0.2506597E-06)
 number of electron      31.9999999 magnetization 
 augmentation part       -1.7274446 magnetization 

 Broyden mixing:
  rms(total) = 0.16066E-03    rms(broyden)= 0.16059E-03
  rms(prec ) = 0.31923E-03
  weight for this iteration     100.00

 eigenvalues of (default mixing * dielectric matrix)
  average eigenvalue GAMMA=   1.9543
  3.2074  2.7021  2.1779  1.6756  0.9813  0.9813

 Free energy of the ion-electron system (eV)
  ---------------------------------------------------
  alpha Z        PSCENC =        12.68944982
  Ewald energy   TEWEN  =      -907.56566129
  -1/2 Hartree   DENC   =       -70.82885144
  -exchange  EXHF       =         0.00000000
  -V(xc)+E(xc)   XCENC  =       -72.91084891
  PAW double counting   =       307.73394045     -166.57508643
  entropy T*S    EENTRO =         0.00000000
  eigenvalues    EBANDS =        37.85847867
  atomic energy  EATOM  =       826.37398168
  ---------------------------------------------------
  free energy    TOTEN  =       -33.22459744 eV

  energy without entropy =      -33.22459744  energy(sigma->0) =      -33.22459744


--------------------------------------------------------------------------------------------------------




 average (electrostatic) potential at core
  the test charge radii are     0.9892
  (the norm of the test charge is              1.0000)
       1 -83.2272       2 -83.2286       3 -83.2277       4 -83.2245       5 -83.2309
       6 -83.2292       7 -83.2253       8 -83.2288
 
 
 
 E-fermi :   6.0568     XC(G=0):  -9.1314     alpha+bet :-11.7379


 k-point   1 :       0.0000    0.0000    0.0000
  band No.  band energies     occupation 
      1      -5.9502      2.00000
      2      -1.8817      2.00000
      3      -1.8739      2.00000
      4      -1.8680      2.00000
      5      -1.8626      2.00000
      6      -1.8554      2.00000
      7      -1.8490      2.00000
      8       3.0429      2.00000
      9       3.0481      2.00000
     10       3.0502      2.00000
     11       3.0507      2.00000
     12       3.0529      2.00000
     13       3.0592      2.00000
     14       5.9089      2.00000
     15       5.9212      2.00000
     16       5.9359      2.00000
     17       6.5824      0.00000
     18       6.5920      0.00000
     19       6.5944      0.00000
     20       6.5966      0.00000
     21       6.5998      0.00000
     22       6.6078      0.00000
     23       8.3711      0.00000
     24       8.3800      0.00000
     25       8.3874      0.00000
     26       9.0553      0.00000
     27      13.6114      0.00000
     28      13.6115      0.00000
     29      13.8249      0.00000
     30      15.8149      0.00000
     31      15.8251      0.00000
     32      15.8281      0.00000
     33      15.8283      0.00000
     34      15.8329      0.00000
     35      15.8378      0.00000
     36      16.9439      0.00000
     37      16.9535      0.00000
     38      16.9608      0.00000
     39      16.9721      0.00000
     40      16.9776      0.00000
     41      16.9841      0.00000
     42      16.9858      0.00000
     43      16.9941      0.00000
     44      17.0042      0.00000
     45      18.7096      0.00000
     46      18.7205      0.00000
     47      18.7291      0.00000
     48      18.7428      0.00000


--------------------------------------------------------------------------------------------------------


 soft charge-density along one line, spin component           1
         0         1         2         3         4         5         6         7         8         9
 total charge-density along one line
 
 pseudopotential strength for first ion, spin component:           1
 18.597  -0.001   0.000   0.000   0.000   0.000   0.000   0.000
 -0.001   0.006   0.000   0.000   0.000   0.000   0.000   0.000
  0.000   0.000   4.224   0.000   0.000  -0.005   0.000   0.000
  0.000   0.000   0.000   4.224   0.000   0.000  -0.005   0.000
  0.000   0.000   0.000   0.000   4.224   0.000   0.000  -0.005
  0.000   0.000  -0.005   0.000   0.000   0.005   0.000   0.000
  0.000   0.000   0.000  -0.005   0.000   0.000   0.005   0.000
  0.000   0.000   0.000   0.000  -0.005   0.000   0.000   0.005
 total augmentation occupancy for first ion, spin component:           1
  1.320  -1.086   0.002  -0.001   0.001  -0.002   0.001  -0.002
 -1.086   1.011  -0.001   0.000   0.000   0.002  -0.001   0.001
  0.002  -0.001   1.121   0.001  -0.001  -0.799  -0.001   0.000
 -0.001   0.000   0.001   1.123   0.001  -0.001  -0.801  -0.002
  0.001   0.000  -0.001   0.001   1.124   0.000  -0.002  -0.802
 -0.002   0.002  -0.799  -0.001   0.000   0.646   0.002   0.000
  0.001  -0.001  -0.001  -0.801  -0.002   0.002   0.647   0.002
 -0.002   0.001   0.000  -0.002  -0.802   0.000   0.002   0.648


----------------------------------------- Iteration    1(  12)  ---------------------------------------


    POTLOK:  cpu time    0.02: real time    0.02
    SETDIJ:  cpu time    0.02: real time    0.02
    EDDIAG:  cpu time    0.02: real time    0.02
  RMM-DIIS:  cpu time    0.04: real time    0.04
    ORTHCH:  cpu time    0.01: real time    0.01
       DOS:  cpu time    0.00: real time    0.00
    CHARGE:  cpu time    0.02: real time    0.02
    MIXING:  cpu time    0.00: real time    0.00
    --------------------------------------------
      LOOP:  cpu time    0.15: real time    0.15

 eigenvalue-minimisations  :   124
 total energy-change (2. order) :-0.7325503E-06  (-0.6181788E-07)
 number of electron      31.9999999 magnetization 
 augmentation part       -1.7274307 magnetization 

 Broyden mixing:
  rms(total) = 0.59380E-04    rms(broyden)= 0.59339E-04
  rms(prec ) = 0.84141E-04
  weight for this iteration     100.00

 eigenvalues of (default mixing * dielectric matrix)
  average eigenvalue GAMMA=   2.0002
  3.2289  2.7436  2.4361  2.0657  1.5676  1.0010  0.9587

 Free energy of the ion-electron system (eV)
  ---------------------------------------------------
  alpha Z        PSCENC =        12.68944982
  Ewald energy   TEWEN  =      -907.56566129
  -1/2 Hartree   DENC   =       -70.83335760
  -exchange  EXHF       =         0.00000000
  -V(xc)+E(xc)   XCENC  =       -72.91076490
  PAW double counting   =       307.74258462     -166.58397650
  entropy T*S    EENTRO =         0.00000000
  eigenvalues    EBANDS =        37.86314600
  atomic energy  EATOM  =       826.37398168
  ---------------------------------------------------
  free energy    TOTEN  =       -33.22459817 eV

  energy without entropy =      -33.22459817  energy(sigma->0) =      -33.22459817


--------------------------------------------------------------------------------------------------------




 average (electrostatic) potential at core
  the test charge radii are     0.9892
  (the norm of the test charge is              1.0000)
       1 -83.2267       2 -83.2281       3 -83.2272       4 -83.2239       5 -83.2304
       6 -83.2287       7 -83.2247       8 -83.2283
 
 
 
 E-fermi :   6.0571     XC(G=0):  -9.1311     alpha+bet :-11.7379


 k-point   1 :       0.0000    0.0000    0.0000
  band No.  band energies     occupation 
      1      -5.9500      2.00000
      2      -1.8816      2.00000
      3      -1.8737      2.00000
      4      -1.8679      2.00000
      5      -1.8624      2.00000
      6      -1.8552      2.00000
      7      -1.8488      2.00000
      8       3.0430      2.00000
      9       3.0482      2.00000
     10       3.0503      2.00000
     11       3.0509      2.00000
     12       3.0531      2.00000
[...]
    MIXING:  cpu time    0.00: real time    0.00
    --------------------------------------------
      LOOP:  cpu time    0.16: real time    0.17

 Broyden mixing:
  rms(total) = 0.72561E-02    rms(broyden)= 0.72556E-02
  rms(prec ) = 0.12478E-01
  weight for this iteration     100.00

 eigenvalues of (default mixing * dielectric matrix)
  average eigenvalue GAMMA=   2.0623
  3.0025  2.4726  1.1257  1.6484

 Free energy of the ion-electron system (eV)
  ---------------------------------------------------
  -1/2 Hartree   DENC   =        -4.61804550
  -V(xc)+E(xc)   XCENC  =         0.94994342
  PAW double counting   =         3.10495022       -3.15439255
  entropy T*S    EENTRO =         0.00000000
  eigenvalues    EBANDS =       -24.53480759
  ---------------------------------------------------
  free energy    TOTEN  =       -28.25235200 eV

  energy without entropy =      -28.25235200


----------------------------------------- Iteration    3(   7)  ---------------------------------------


   POT+DIJ:  cpu time    0.08: real time    0.08
    HAMIL1:  cpu time    0.01: real time    0.01
    LRDIAG:  cpu time    0.01: real time    0.02
    LRDIIS:  cpu time    0.02: real time    0.02
    LRDIAG:  cpu time    0.01: real time    0.01
    MIXING:  cpu time    0.00: real time    0.00
    --------------------------------------------
      LOOP:  cpu time    0.16: real time    0.16

 Broyden mixing:
  rms(total) = 0.58377E-03    rms(broyden)= 0.58316E-03
  rms(prec ) = 0.11902E-02
  weight for this iteration     100.00

 eigenvalues of (default mixing * dielectric matrix)
  average eigenvalue GAMMA=   1.9320
  3.0877  2.4357  1.6705  1.1146  1.3518

 Free energy of the ion-electron system (eV)
  ---------------------------------------------------
  -1/2 Hartree   DENC   =        -4.63142991
  -V(xc)+E(xc)   XCENC  =         0.95802144
  PAW double counting   =         3.06897896       -3.11788321
  entropy T*S    EENTRO =         0.00000000
  eigenvalues    EBANDS =       -24.57120476
  ---------------------------------------------------
  free energy    TOTEN  =       -28.29351748 eV

  energy without entropy =      -28.29351748


----------------------------------------- Iteration    3(   8)  ---------------------------------------


   POT+DIJ:  cpu time    0.09: real time    0.09
    HAMIL1:  cpu time    0.00: real time    0.01
    LRDIAG:  cpu time    0.01: real time    0.02
    LRDIIS:  cpu time    0.02: real time    0.02
    LRDIAG:  cpu time    0.01: real time    0.01
    MIXING:  cpu time    0.00: real time    0.00
    --------------------------------------------
      LOOP:  cpu time    0.17: real time    0.17

 Broyden mixing:
  rms(total) = 0.27203E-03    rms(broyden)= 0.27195E-03
  rms(prec ) = 0.40596E-03
  weight for this iteration     100.00

 eigenvalues of (default mixing * dielectric matrix)
  average eigenvalue GAMMA=   1.9030
  3.0824  2.4702  1.9830  1.6644  1.0778  1.1401

 Free energy of the ion-electron system (eV)
  ---------------------------------------------------
  -1/2 Hartree   DENC   =        -4.63459539
  -V(xc)+E(xc)   XCENC  =         0.95897037
  PAW double counting   =         3.07126346       -3.12020762
  entropy T*S    EENTRO =         0.00000000
  eigenvalues    EBANDS =       -24.57305690
  ---------------------------------------------------
  free energy    TOTEN  =       -28.29762607 eV

  energy without entropy =      -28.29762607


----------------------------------------- Iteration    3(   9)  ---------------------------------------


   POT+DIJ:  cpu time    0.08: real time    0.08
    HAMIL1:  cpu time    0.01: real time    0.01
    LRDIAG:  cpu time    0.01: real time    0.02
    LRDIIS:  cpu time    0.02: real time    0.02
    LRDIAG:  cpu time    0.01: real time    0.01
    MIXING:  cpu time    0.00: real time    0.00
    --------------------------------------------
      LOOP:  cpu time    0.16: real time    0.17

 Broyden mixing:
  rms(total) = 0.11585E-03    rms(broyden)= 0.11583E-03
  rms(prec ) = 0.17323E-03
  weight for this iteration     100.00

 eigenvalues of (default mixing * dielectric matrix)
  average eigenvalue GAMMA=   1.8958
  3.1727  2.7106  2.4153  1.6770  1.2742  1.1045  0.9165

 Free energy of the ion-electron system (eV)
  ---------------------------------------------------
  -1/2 Hartree   DENC   =        -4.63424517
  -V(xc)+E(xc)   XCENC  =         0.95890401
  PAW double counting   =         3.07307213       -3.12204768
  entropy T*S    EENTRO =         0.00000000
  eigenvalues    EBANDS =       -24.57332556
  ---------------------------------------------------
  free energy    TOTEN  =       -28.29764227 eV

  energy without entropy =      -28.29764227


----------------------------------------- Iteration    3(  10)  ---------------------------------------


   POT+DIJ:  cpu time    0.08: real time    0.08
    HAMIL1:  cpu time    0.00: real time    0.01
    LRDIAG:  cpu time    0.01: real time    0.01
    LRDIIS:  cpu time    0.02: real time    0.02
    LRDIAG:  cpu time    0.01: real time    0.01
    MIXING:  cpu time    0.00: real time    0.00
    --------------------------------------------
      LOOP:  cpu time    0.16: real time    0.16

 Broyden mixing:
  rms(total) = 0.16318E-04    rms(broyden)= 0.16308E-04
  rms(prec ) = 0.25330E-04
  weight for this iteration     100.00

 eigenvalues of (default mixing * dielectric matrix)
  average eigenvalue GAMMA=   1.8316
  3.1935  2.7642  2.4487  1.6694  1.3653  0.9634  1.1240  1.1240

 Free energy of the ion-electron system (eV)
  ---------------------------------------------------
  -1/2 Hartree   DENC   =        -4.63435964
  -V(xc)+E(xc)   XCENC  =         0.95895451
  PAW double counting   =         3.07439963       -3.12339830
  entropy T*S    EENTRO =         0.00000000
  eigenvalues    EBANDS =       -24.57359650
  ---------------------------------------------------
  free energy    TOTEN  =       -28.29800030 eV

  energy without entropy =      -28.29800030


----------------------------------------- Iteration    3(  11)  ---------------------------------------


   POT+DIJ:  cpu time    0.08: real time    0.08
    HAMIL1:  cpu time    0.00: real time    0.01
    LRDIAG:  cpu time    0.01: real time    0.01
    LRDIIS:  cpu time    0.02: real time    0.02
    LRDIAG:  cpu time    0.01: real time    0.01
    MIXING:  cpu time    0.00: real time    0.00
    --------------------------------------------
      LOOP:  cpu time    0.16: real time    0.16

 Broyden mixing:
  rms(total) = 0.41058E-05    rms(broyden)= 0.41034E-05
  rms(prec ) = 0.61737E-05
  weight for this iteration     100.00

 eigenvalues of (default mixing * dielectric matrix)
  average eigenvalue GAMMA=   1.8511
  3.1981  2.7979  2.4350  2.0746  1.6698  1.3610  0.9604  1.1015  1.0613

 Free energy of the ion-electron system (eV)
  ---------------------------------------------------
  -1/2 Hartree   DENC   =        -4.63434778
  -V(xc)+E(xc)   XCENC  =         0.95894617
  PAW double counting   =         3.07450427       -3.12350467
  entropy T*S    EENTRO =         0.00000000
  eigenvalues    EBANDS =       -24.57357554
  ---------------------------------------------------
  free energy    TOTEN  =       -28.29797755 eV

  energy without entropy =      -28.29797755


----------------------------------------- Iteration    3(  12)  ---------------------------------------


   POT+DIJ:  cpu time    0.08: real time    0.08
    HAMIL1:  cpu time    0.01: real time    0.01
    LRDIAG:  cpu time    0.01: real time    0.01
    LRDIIS:  cpu time    0.02: real time    0.02
    LRDIAG:  cpu time    0.01: real time    0.01
    MIXING:  cpu time    0.00: real time    0.00
    --------------------------------------------
      LOOP:  cpu time    0.16: real time    0.16

 Broyden mixing:
  rms(total) = 0.15903E-05    rms(broyden)= 0.15900E-05
  rms(prec ) = 0.22902E-05
  weight for this iteration     100.00

 eigenvalues of (default mixing * dielectric matrix)
  average eigenvalue GAMMA=   1.8380
  3.2035  2.7844  2.4416  2.4803  1.6721  1.3393  1.3393  1.0025  1.0082  1.1085

 Free energy of the ion-electron system (eV)
  ---------------------------------------------------
  -1/2 Hartree   DENC   =        -4.63434902
  -V(xc)+E(xc)   XCENC  =         0.95894642
  PAW double counting   =         3.07444175       -3.12344111
  entropy T*S    EENTRO =         0.00000000
  eigenvalues    EBANDS =       -24.57357828
  ---------------------------------------------------
  free energy    TOTEN  =       -28.29798024 eV

  energy without entropy =      -28.29798024


----------------------------------------- Iteration    3(  13)  ---------------------------------------


   POT+DIJ:  cpu time    0.08: real time    0.08
    HAMIL1:  cpu time    0.00: real time    0.01
    LRDIAG:  cpu time    0.01: real time    0.01
    LRDIIS:  cpu time    0.02: real time    0.02
    LRDIAG:  cpu time    0.01: real time    0.01
    MIXING:  cpu time    0.00: real time    0.00
    --------------------------------------------
      LOOP:  cpu time    0.16: real time    0.16

 Broyden mixing:
  rms(total) = 0.29393E-06    rms(broyden)= 0.29384E-06
  rms(prec ) = 0.50982E-06
  weight for this iteration     100.00

 eigenvalues of (default mixing * dielectric matrix)
  average eigenvalue GAMMA=   1.8294
  3.2088  2.8682  2.4489  2.5742  1.6885  1.6542  1.0008  1.0008  1.1083  1.2854
  1.2854

 Free energy of the ion-electron system (eV)
  ---------------------------------------------------
  -1/2 Hartree   DENC   =        -4.63435102
  -V(xc)+E(xc)   XCENC  =         0.95894668
  PAW double counting   =         3.07440614       -3.12340490
  entropy T*S    EENTRO =         0.00000000
  eigenvalues    EBANDS =       -24.57357805
  ---------------------------------------------------
  free energy    TOTEN  =       -28.29798115 eV

  energy without entropy =      -28.29798115


------------------------ aborting loop because EDIFF is reached ----------------------------------------


 change of polarisation eV/A/(eV/A) component  3 :     0.082    -0.045    50.552
 dielectric tensor                  component  3 :     0.091    -0.050    56.891


--------------------------------------------------------------------------------------------------------


    FORLOC:  cpu time    0.00: real time    0.00
    FORNL :  cpu time    0.10: real time    0.10
    STRESS:  cpu time    0.31: real time    0.31
    FORCOR:  cpu time    0.02: real time    0.02
    FORLOC:  cpu time    0.00: real time    0.00
    FORNL :  cpu time    0.09: real time    0.10
    STRESS:  cpu time    0.31: real time    0.31
    FORCOR:  cpu time    0.02: real time    0.02
    FORNLD:  cpu time    0.01: real time    0.01

 PIEZOELECTRIC TENSOR FIELD DIRECTION 3  (e Angst)
 -----------------------------------------------------------------------------
     0.00612 -0.00034  0.00535           (  0.00001  0.00000  0.00000)
    -0.00033  0.00624 -0.00659           (  0.00000  0.00001  0.00000)
     0.00535 -0.00659 -0.00867           (  0.00000  0.00000  0.00001)

 PIEZOELECTRIC TENSOR FIELD DIRECTION 3  (C/m^2)
 -----------------------------------------------------------------------------
     0.00060 -0.00003  0.00052
    -0.00003  0.00061 -0.00064
     0.00052 -0.00064 -0.00085


      POSITION         DIRECTION 3           BORN EFFECTIVE CHARGE    (rigid.aug.   ionic)
 -----------------------------------------------------------------------------------------
      0.00233      0.00363      5.46840    -0.17122  0.02607 -5.78773 (  0.21592  4.00000)
      1.37113      1.36590      1.36558     0.06239  0.13548 -5.78277 (  0.21594  4.00000)
      2.73340      2.73308      0.00089     0.18369  0.04618 -5.78836 (  0.21593  4.00000)
      4.10058      4.10339      1.36670     0.05100 -0.16045 -5.84328 (  0.21590  4.00000)
      2.73589      5.46920      2.73578     0.16709 -0.03224 -5.71237 (  0.21596  4.00000)
      4.10170      1.36828      4.10258    -0.05683  0.16139 -5.73112 (  0.21594  4.00000)
      0.00078      2.73508      2.73854    -0.19076 -0.03157 -5.81856 (  0.21591  4.00000)
      1.36758      4.10604      4.09822    -0.06631 -0.13281 -5.75239 (  0.21594  4.00000)
 -----------------------------------------------------------------------------------------
    total drift (improves with k-points):  -0.02094  0.01205-46.21657




--------------------------------------------------------------------------------------------------------


  LATTYP: Found a simple cubic cell.
 ALAT       =     5.4700000000
  
  Lattice vectors:
  
 A1 = (   5.4700000000,   0.0000000000,   0.0000000000)
 A2 = (   0.0000000000,   5.4700000000,   0.0000000000)
 A3 = (   0.0000000000,   0.0000000000,   5.4700000000)


Analysis of symmetry for initial positions (statically):
=====================================================================
 Subroutine PRICEL returns:
 Original cell was already a primitive cell.
 

 Routine SETGRP: Setting up the symmetry group for a 
 simple cubic supercell.


 Subroutine GETGRP returns: Found  1 space group operations
 (whereof  1 operations were pure point group operations)
 out of a pool of 48 trial point group operations.


The static configuration has the point symmetry C_1 .


Analysis of symmetry for dynamics (positions and initial velocities):
=====================================================================
 Subroutine PRICEL returns:
 Original cell was already a primitive cell.
 

 Routine SETGRP: Setting up the symmetry group for a 
 simple cubic supercell.


 Subroutine GETGRP returns: Found  1 space group operations
 (whereof  1 operations were pure point group operations)
 out of a pool of 48 trial point group operations.


The dynamic configuration has the point symmetry C_1 .


 MACROSCOPIC STATIC DIELECTRIC TENSOR (including local field effects in DFT)
 ------------------------------------------------------
          56.874353    -0.349374     0.091028
          -0.349373    56.882371    -0.049860
           0.091026    -0.049860    56.890795
 ------------------------------------------------------



--------------------------------------------------------------------------------------------------------


  LATTYP: Found a simple cubic cell.
 ALAT       =     5.4700000000
  
  Lattice vectors:
  
 A1 = (   5.4700000000,   0.0000000000,   0.0000000000)
 A2 = (   0.0000000000,   5.4700000000,   0.0000000000)
 A3 = (   0.0000000000,   0.0000000000,   5.4700000000)


Analysis of symmetry for initial positions (statically):
=====================================================================
 Subroutine PRICEL returns:
 Original cell was already a primitive cell.
 

 Routine SETGRP: Setting up the symmetry group for a 
 simple cubic supercell.


 Subroutine GETGRP returns: Found  1 space group operations
 (whereof  1 operations were pure point group operations)
 out of a pool of 48 trial point group operations.


The static configuration has the point symmetry C_1 .


Analysis of symmetry for dynamics (positions and initial velocities):
=====================================================================
 Subroutine PRICEL returns:
 Original cell was already a primitive cell.
 

 Routine SETGRP: Setting up the symmetry group for a 
 simple cubic supercell.


 Subroutine GETGRP returns: Found  1 space group operations
 (whereof  1 operations were pure point group operations)
 out of a pool of 48 trial point group operations.


The dynamic configuration has the point symmetry C_1 .
 
 KPOINTS: Automatic mesh                          

Automatic generation of k-mesh.
Space group operators:
 irot       det(A)        alpha          n_x          n_y          n_z        tau_x        tau_y        tau_z
    1     1.000000     0.000001     1.000000     0.000000     0.000000     0.000000     0.000000     0.000000
 
 Subroutine IBZKPT returns following result:
 ===========================================
 
 Found      1 irreducible k-points:
 
 Following reciprocal coordinates:
            Coordinates               Weight
  0.000000  0.000000  0.000000      1.000000
 
 Following cartesian coordinates:
            Coordinates               Weight
  0.000000  0.000000  0.000000      1.000000
 


--------------------------------------------------------------------------------------------------------




 MACROSCOPIC STATIC DIELECTRIC TENSOR (including local field effects in DFT)
 ------------------------------------------------------
          56.874353    -0.349374     0.091028
          -0.349373    56.882371    -0.049860
           0.091026    -0.049860    56.890795
 ------------------------------------------------------


 PIEZOELECTRIC TENSOR  for field in x, y, z        (e  Angst)
          XX          YY          ZZ          XY          YZ          ZX
  --------------------------------------------------------------------------------
  x     0.00042    -0.01236     0.00555     0.00384     0.00015    -0.00747
  y     0.01830     0.00315    -0.00649    -0.00098    -0.00641     0.00008
  z     0.00612     0.00624    -0.00867    -0.00033    -0.00659     0.00535

 PIEZOELECTRIC TENSOR  for field in x, y, z        (C/m^2)
          XX          YY          ZZ          XY          YZ          ZX
  --------------------------------------------------------------------------------
  x     0.00004    -0.00121     0.00054     0.00038     0.00001    -0.00073
  y     0.00179     0.00031    -0.00064    -0.00010    -0.00063     0.00001
  z     0.00060     0.00061    -0.00085    -0.00003    -0.00064     0.00052
 
 BORN EFFECTIVE CHARGES (in e, cummulative output)
 -------------------------------------------------
 ion    1
    1    -5.80754     0.15433     0.14008
    2    -0.10139    -5.77421    -0.04610
    3    -0.17122     0.02607    -5.78773
 ion    2
    1    -5.74871     0.11699    -0.05887
    2    -0.17404    -5.75172    -0.11037
    3     0.06239     0.13548    -5.78277
 ion    3
    1    -5.75941    -0.13947    -0.12858
    2     0.11696    -5.79558    -0.09060
    3     0.18369     0.04618    -5.78836
 ion    4
    1    -5.84960    -0.10039    -0.05902
    2     0.18998    -5.84342     0.10167
    3     0.05100    -0.16045    -5.84328
 ion    5
    1    -5.69453     0.16238    -0.14089
    2    -0.09776    -5.70823     0.10201
    3     0.16709    -0.03224    -5.71237
 ion    6
    1    -5.76507    -0.14090     0.05925
    2     0.18651    -5.73018    -0.09733
    3    -0.05683     0.16139    -5.73112
 ion    7
    1    -5.84584    -0.13956     0.12857
    2     0.12046    -5.83010     0.03570
    3    -0.19076    -0.03157    -5.81856
 ion    8
    1    -5.74249     0.16348     0.03839
    2    -0.16401    -5.78163     0.11703
    3    -0.06631    -0.13281    -5.75239


--------------------------------------------------------------------------------------------------------


     LOOP+:  cpu time   20.95: real time   21.47
    4ORBIT:  cpu time    0.00: real time    0.00

 total amount of memory used by VASP on root node    32224. kBytes
========================================================================

   base      :      30000. kBytes
   nonl-proj :        202. kBytes
   fftplans  :        782. kBytes
   grid      :       1198. kBytes
   one-center:         24. kBytes
   wavefun   :         18. kBytes
 
  
  
 General timing and accounting informations for this job:
 ========================================================
  
                  Total CPU time used (sec):       21.678
                            User time (sec):       16.704
                          System time (sec):        4.973
                         Elapsed time (sec):       24.115
  
                   Maximum memory used (kb):       62844.
                   Average memory used (kb):           0.
  
                          Minor page faults:       204245
                          Major page faults:            0
                 Voluntary context switches:         1524
