 vasp.5.3.3 18Dez12 (build Jan  9 2014 12:00:49) complex                        
  
 executed on             LinuxIFC date 2014.01.29  10:05:47
 running on   48 total cores
 distrk:  each k-point on   48 cores,    1 groups
 distr:  one band on NCORES_PER_BAND=   1 cores,   48 groups


--------------------------------------------------------------------------------------------------------


 INCAR:
 POTCAR:    PAW Si                                

 ----------------------------------------------------------------------------- 
|                                                                             |
|           W    W    AA    RRRRR   N    N  II  N    N   GGGG   !!!           |
|           W    W   A  A   R    R  NN   N  II  NN   N  G    G  !!!           |
|           W    W  A    A  R    R  N N  N  II  N N  N  G       !!!           |
|           W WW W  AAAAAA  RRRRR   N  N N  II  N  N N  G  GGG   !            |
|           WW  WW  A    A  R   R   N   NN  II  N   NN  G    G                |
|           W    W  A    A  R    R  N    N  II  N    N   GGGG   !!!           |
|                                                                             |
|      For optimal performance we recommend that you set                      |
|        NPAR = 4 - approx SQRT( number of cores)                             |
|      (number of cores/NPAR must be integer)                                 |
|      This setting will greatly improve the performance of VASP for DFT.     |
|      The default NPAR=number of cores might be grossly inefficient          |
|      on modern multi-core architectures or massively parallel machines.     |
|      Do your own testing.                                                   |
|      Unfortunately you need to use the default for hybrid, GW and RPA       |
|      calculations.                                                          |
|                                                                             |
 ----------------------------------------------------------------------------- 

 POTCAR:    PAW Si                                
   VRHFIN =Si: s2p2                                                             
   LEXCH  = 91                                                                  
   EATOM  =   103.3076 eV,    7.5929 Ry                                         
                                                                                
   TITEL  = PAW Si                                                              
   LULTRA =        F    use ultrasoft PP ?                                      
   IUNSCR =        1    unscreen: 0-lin 1-nonlin 2-no                           
   RPACOR =    1.500    partial core radius                                     
   POMASS =   28.085; ZVAL   =    4.000    mass and valenz                      
   RCORE  =    1.900    outmost cutoff radius                                   
   RWIGS  =    2.480; RWIGS  =    1.312    wigner-seitz radius (au A)           
   ENMAX  =  245.435; ENMIN  =  184.076 eV                                      
   ICORE  =        2    local potential                                         
   LCOR   =        T    correct aug charges                                     
   LPAW   =        T    paw PP                                                  
   EAUG   =  322.069                                                            
   DEXC   =    -.001                                                            
   RMAX   =    2.943    core radius for proj-oper                               
   RAUG   =    1.300    factor for augmentation sphere                          
   RDEP   =    1.993    core radius for depl-charge                             
   QCUT   =   -4.247; QGAM   =    8.494    optimization parameters              
                                                                                
   Description                                                                  
     l     E      TYP  RCUT    TYP  RCUT                                        
     0   .000     23  1.900                                                     
     0   .000     23  1.900                                                     
     1   .000     23  1.900                                                     
     1   .000     23  1.900                                                     
     2   .000      7  1.900                                                     
  local pseudopotential read in
  partial core-charges read in
  atomic valenz-charges read in
  non local Contribution for L=           0  read in
    real space projection operators read in
  non local Contribution for L=           0  read in
    real space projection operators read in
  non local Contribution for L=           1  read in
    real space projection operators read in
  non local Contribution for L=           1  read in
    real space projection operators read in
    PAW grid and wavefunctions read in
 
   number of l-projection  operators is LMAX  =           4
   number of lm-projection operators is LMMAX =           8
 
  PAW Si                                :
 energy of atom  1       EATOM= -103.3076
 kinetic energy error for atom=    0.0109 (will be added to EATOM!!)
 
 
 POSCAR: OUTCAR.0014.+1.out 1.0e-02              
  positions in cartesian coordinates
  No initial velocities read in
 exchange correlation table for  LEXCH =        7
   RHO(1)=    0.500       N(1)  =     2000
   RHO(2)=  100.500       N(2)  =     4000

 VTST: version 3.0c, (01/09/14)

 CHAIN: initializing optimizer
 
 OPT: Using VASP Dynamics algorithm
 CHAIN: Read ICHAIN            0
 
 POSCAR: OUTCAR.0014.+1.out 1.0e-02              
  positions in cartesian coordinates
  No initial velocities read in
 


--------------------------------------------------------------------------------------------------------


 ion  position               nearest neighbor table
   1  0.001  0.000  0.000-   2 2.37   8 2.37   4 2.37   6 2.38
   2  0.250  0.250  0.250-   1 2.37   7 2.37   3 2.37   5 2.37
   3  0.500  0.500  1.000-   6 2.36   4 2.37   2 2.37   8 2.37
   4  0.750  0.750  0.249-   3 2.37   1 2.37   5 2.37   7 2.37
   5  0.500  0.999  0.501-   8 2.36   6 2.37   4 2.37   2 2.37
   6  0.749  0.251  0.750-   3 2.36   5 2.37   7 2.37   1 2.38
   7  0.001  0.500  0.500-   8 2.37   2 2.37   6 2.37   4 2.37
   8  0.250  0.750  0.750-   5 2.36   7 2.37   1 2.37   3 2.37
 
  LATTYP: Found a simple cubic cell.
 ALAT       =     5.4700000000
  
  Lattice vectors:
  
 A1 = (   5.4700000000,   0.0000000000,   0.0000000000)
 A2 = (   0.0000000000,   5.4700000000,   0.0000000000)
 A3 = (   0.0000000000,   0.0000000000,   5.4700000000)


Analysis of symmetry for initial positions (statically):
=====================================================================
 Subroutine PRICEL returns:
 Original cell was already a primitive cell.
 

 Routine SETGRP: Setting up the symmetry group for a 
 simple cubic supercell.


 Subroutine GETGRP returns: Found  1 space group operations
 (whereof  1 operations were pure point group operations)
 out of a pool of 48 trial point group operations.


The static configuration has the point symmetry C_1 .


Analysis of symmetry for dynamics (positions and initial velocities):
=====================================================================
 Subroutine PRICEL returns:
 Original cell was already a primitive cell.
 

 Routine SETGRP: Setting up the symmetry group for a 
 simple cubic supercell.


 Subroutine GETGRP returns: Found  1 space group operations
 (whereof  1 operations were pure point group operations)
 out of a pool of 48 trial point group operations.


The dynamic configuration has the point symmetry C_1 .


 irot  :   1
 --------------------------------------------------------------------
 isymop:   1   0   0
           0   1   0
           0   0   1

 gtrans:     0.0000000     0.0000000     0.0000000

 ptrans:     0.0000000     0.0000000     0.0000000
 rotmap:
 (   1->   1)  (   2->   2)  (   3->   3)  (   4->   4)  (   5->   5) 
 (   6->   6)  (   7->   7)  (   8->   8) 
 
 
 KPOINTS: Automatic mesh                          

Automatic generation of k-mesh.
Space group operators:
 irot       det(A)        alpha          n_x          n_y          n_z        tau_x        tau_y        tau_z
    1     1.000000     0.000001     1.000000     0.000000     0.000000     0.000000     0.000000     0.000000
 
 Subroutine IBZKPT returns following result:
 ===========================================
 
 Found      1 irreducible k-points:
 
 Following reciprocal coordinates:
            Coordinates               Weight
  0.000000  0.000000  0.000000      1.000000
 
 Following cartesian coordinates:
            Coordinates               Weight
  0.000000  0.000000  0.000000      1.000000
 
 
 Subroutine IBZKPT_HF returns following result:
 ==============================================
 
 Found      1 k-points in 1st BZ
 the following      1 k-points will be used (e.g. in the exchange kernel)
 Following reciprocal coordinates:   # in IRBZ
  0.000000  0.000000  0.000000       1 t-inv F


--------------------------------------------------------------------------------------------------------




 Dimension of arrays:
   k-points           NKPTS =      1   k-points in BZ     NKDIM =      1   number of bands    NBANDS=     48
   number of dos      NEDOS =    301   number of ions     NIONS =      8
   non local maximal  LDIM  =      4   non local SUM 2l+1 LMDIM =      8
   total plane-waves  NPLWV =  21952
   max r-space proj   IRMAX =      1   max aug-charges    IRDMAX=  36071
   dimension x,y,z NGX =    28 NGY =   28 NGZ =   28
   dimension x,y,z NGXF=    56 NGYF=   56 NGZF=   56
   support grid    NGXF=   112 NGYF=  112 NGZF=  112
   ions per type =               8
 NGX,Y,Z   is equivalent  to a cutoff of   8.51,  8.51,  8.51 a.u.
 NGXF,Y,Z  is equivalent  to a cutoff of  17.02, 17.02, 17.02 a.u.


 I would recommend the setting:
   dimension x,y,z NGX =    19 NGY =   19 NGZ =   19
 SYSTEM =  NAPTHA04                                
 POSCAR =  OUTCAR.0014.+1.out 1.0e-02              

 Startparameter for this run:
   NWRITE =      3    write-flag & timer
   PREC   = normal    normal or accurate (medium, high low for compatibility)
   ISTART =      0    job   : 0-new  1-cont  2-samecut
   ICHARG =      2    charge: 1-file 2-atom 10-const
   ISPIN  =      1    spin polarized calculation?
   LNONCOLLINEAR =      F non collinear calculations
   LSORBIT =      F    spin-orbit coupling
   INIWAV =      1    electr: 0-lowe 1-rand  2-diag
   LASPH  =      F    aspherical Exc in radial PAW
   METAGGA=      F    non-selfconsistent MetaGGA calc.

 Electronic Relaxation 1
   ENCUT  =  200.0 eV  14.70 Ry    3.83 a.u.   6.31  6.31  6.31*2*pi/ulx,y,z
   ENINI  =  200.0     initial cutoff
   ENAUG  =  322.1 eV  augmentation charge cutoff
   NELM   =     60;   NELMIN=  2; NELMDL= -5     # of ELM steps 
   EDIFF  = 0.1E-07   stopping-criterion for ELM
   LREAL  =      F    real-space projection
   NLSPLINE    = F    spline interpolate recip. space projectors
   LCOMPAT=      F    compatible to vasp.4.4
   GGA_COMPAT  = T    GGA compatible to vasp.4.4-vasp.4.6
   LMAXPAW     = -100 max onsite density
   LMAXMIX     =    2 max onsite mixed and CHGCAR
   VOSKOWN=      0    Vosko Wilk Nusair interpolation
   ROPT   =    0.00000
 Ionic relaxation
   EDIFFG = 0.1E-06   stopping-criterion for IOM
   NSW    =      0    number of steps for IOM
   NBLOCK =      1;   KBLOCK =      1    inner block; outer block 
   IBRION =     -1    ionic relax: 0-MD 1-quasi-New 2-CG
   NFREE  =      0    steps in history (QN), initial steepest desc. (CG)
   ISIF   =      2    stress and relaxation
   IWAVPR =     10    prediction:  0-non 1-charg 2-wave 3-comb
   ISYM   =      2    0-nonsym 1-usesym 2-fastsym
   LCORR  =      T    Harris-Foulkes like correction to forces

   POTIM  = 0.5000    time-step for ionic-motion
   TEIN   =    0.0    initial temperature
   TEBEG  =    0.0;   TEEND  =   0.0 temperature during run
   SMASS  =  -3.00    Nose mass-parameter (am)
   estimated Nose-frequenzy (Omega)   =  0.10E-29 period in steps =****** mass=  -0.684E-27a.u.
   SCALEE = 1.0000    scale energy and forces
   NPACO  =    256;   APACO  = 16.0  distance and # of slots for P.C.
   PSTRESS=    0.0 pullay stress

  Mass of Ions in am
   POMASS =  28.09
  Ionic Valenz
   ZVAL   =   4.00
  Atomic Wigner-Seitz radii
   RWIGS  =  -1.00
  virtual crystal weights 
   VCA    =   1.00
   NELECT =      32.0000    total number of electrons
   NUPDOWN=      -1.0000    fix difference up-down

 DOS related values:
   EMIN   =  10.00;   EMAX   =-10.00  energy-range for DOS
   EFERMI =   0.00
   ISMEAR =     0;   SIGMA  =   0.02  broadening in eV -4-tet -1-fermi 0-gaus

 Electronic relaxation 2 (details)
   IALGO  =     68    algorithm
   LDIAG  =      T    sub-space diagonalisation (order eigenvalues)
   LSUBROT=      T    optimize rotation matrix (better conditioning)
   TURBO    =      0    0=normal 1=particle mesh
   IRESTART =      0    0=no restart 2=restart with 2 vectors
   NREBOOT  =      0    no. of reboots
   NMIN     =      0    reboot dimension
   EREF     =   0.00    reference energy to select bands
   IMIX   =      4    mixing-type and parameters
     AMIX     =   0.40;   BMIX     =  1.00
     AMIX_MAG =   1.60;   BMIX_MAG =  1.00
     AMIN     =   0.10
     WC   =   100.;   INIMIX=   1;  MIXPRE=   1;  MAXMIX= -45

 Intra band minimization:
   WEIMIN = 0.0000     energy-eigenvalue tresh-hold
   EBREAK =  0.52E-10  absolut break condition
   DEPER  =   0.30     relativ break condition  

   TIME   =   0.40     timestep for ELM

  volume/ion in A,a.u.               =      20.46       138.06
  Fermi-wavevector in a.u.,A,eV,Ry     =   0.950176  1.795573 12.283814  0.902835
  Thomas-Fermi vector in A             =   2.078528
 
 Write flags
   LWAVE  =      F    write WAVECAR
   LCHARG =      F    write CHGCAR
   LVTOT  =      F    write LOCPOT, total local potential
   LVHAR  =      F    write LOCPOT, Hartree potential only
   LELF   =      F    write electronic localiz. function (ELF)
   LORBIT =      0    0 simple, 1 ext, 2 COOP (PROOUT)


 Dipole corrections
   LMONO  =      F    monopole corrections only (constant potential shift)
   LDIPOL =      F    correct potential (dipole corrections)
   IDIPOL =      0    1-x, 2-y, 3-z, 4-all directions 
   EPSILON=  1.0000000 bulk dielectric constant

 Exchange correlation treatment:
   GGA     =    --    GGA type
   LEXCH   =     7    internal setting for exchange type
   VOSKOWN=      0    Vosko Wilk Nusair interpolation
   LHFCALC =     F    Hartree Fock is set to
   LHFONE  =     F    Hartree Fock one center treatment
   AEXX    =    0.0000 exact exchange contribution

 Linear response parameters
   LEPSILON=     T    determine dielectric tensor
   LRPA    =     F    only Hartree local field effects (RPA)
   LNABLA  =     F    use nabla operator in PAW spheres
   LVEL    =     F    velocity operator in full k-point grid
   LINTERFAST=   F  fast interpolation
   KINTER  =     0    interpolate to denser k-point grid
   CSHIFT  =0.1000    complex shift for real part using Kramers Kronig
   OMEGAMAX=  -1.0    maximum frequency
   DEG_THRESHOLD= 0.2000000E-02 threshold for treating states as degnerate
   RTIME   =    0.100 relaxation time in fs

 Orbital magnetization related:
   ORBITALMAG=     F  switch on orbital magnetization
   LCHIMAG   =     F  perturbation theory with respect to B field
   DQ        =  0.001000  dq finite difference perturbation B field



--------------------------------------------------------------------------------------------------------


 Static calculation
 charge density and potential will be updated during run
 non-spin polarized calculation
 RMM-DIIS sequential band-by-band and
  variant of blocked Davidson during initial phase
 perform sub-space diagonalisation
    before iterative eigenvector-optimisation
 modified Broyden-mixing scheme, WC =      100.0
 initial mixing is a Kerker type mixing with AMIX =  0.4000 and BMIX =      1.0000
 Hartree-type preconditioning will be used
 using additional bands           32
 reciprocal scheme for non local part
 use partial core corrections
 calculate Harris-corrections to forces 
   (improved forces if not selfconsistent)
 use gradient corrections 
 use of overlap-Matrix (Vanderbilt PP)
 Gauss-broadening in eV      SIGMA  =   0.02


--------------------------------------------------------------------------------------------------------


  energy-cutoff  :      200.00
  volume of cell :      163.67
      direct lattice vectors                 reciprocal lattice vectors
     5.470000000  0.000000000  0.000000000     0.182815356  0.000000000  0.000000000
     0.000000000  5.470000000  0.000000000     0.000000000  0.182815356  0.000000000
     0.000000000  0.000000000  5.470000000     0.000000000  0.000000000  0.182815356

  length of vectors
     5.470000000  5.470000000  5.470000000     0.182815356  0.182815356  0.182815356


 
 k-points in units of 2pi/SCALE and weight: Automatic mesh                          
   0.00000000  0.00000000  0.00000000       1.000
 
 k-points in reciprocal lattice and weights: Automatic mesh                          
   0.00000000  0.00000000  0.00000000       1.000
 
 position of ions in fractional coordinates (direct lattice) 
   0.00071845  0.00000415  0.00010513
   0.25000415  0.25010513  0.24971429
   0.50010513  0.49971429  0.99997043
   0.74971429  0.74997043  0.24939422
   0.49997043  0.99939422  0.50068194
   0.74939422  0.25068194  0.74996603
   0.00068194  0.49996603  0.49985045
   0.24996603  0.74985045  0.74996813
 
 position of ions in cartesian coordinates  (Angst):
   0.00392990  0.00002269  0.00057505
   1.36752269  1.36807505  1.36593714
   2.73557505  2.73343714  5.46983827
   4.10093714  4.10233827  1.36418636
   2.73483827  5.46668636  2.73873023
   4.09918636  1.37123023  4.10231420
   0.00373023  2.73481420  2.73418195
   1.36731420  4.10168195  4.10232566
 


--------------------------------------------------------------------------------------------------------


 k-point  1 :   0.0000 0.0000 0.0000  plane waves:    1021

 maximum and minimum number of plane-waves per node :      1021     1021

 maximum number of plane-waves:      1021
 maximum index in each direction: 
   IXMAX=    6   IYMAX=    6   IZMAX=    6
   IXMIN=   -6   IYMIN=   -6   IZMIN=   -6

 NGX is ok and might be reduce to  26
 NGY is ok and might be reduce to  26
 NGZ is ok and might be reduce to  26

 serial   3D FFT for wavefunctions
 parallel 3D FFT for charge:
    minimum data exchange during FFTs selected (reduces bandwidth)


 total amount of memory used by VASP on root node    32224. kBytes
========================================================================

   base      :      30000. kBytes
   nonl-proj :        202. kBytes
   fftplans  :        782. kBytes
   grid      :       1198. kBytes
   one-center:         24. kBytes
   wavefun   :         18. kBytes
 
 Broyden mixing: mesh for mixing (old mesh)
   NGX = 13   NGY = 13   NGZ = 13
  (NGX  = 56   NGY  = 56   NGZ  = 56)
  gives a total of   2197 points

 initial charge density was supplied:
 charge density of overlapping atoms calculated
 number of electron      32.0000000 magnetization 
 keeping initial charge density in first step


--------------------------------------------------------------------------------------------------------


 Maximum index for augmentation-charges         1780 (set IRDMAX)


--------------------------------------------------------------------------------------------------------


 First call to EWALD:  gamma=   0.324
 Maximum number of real-space cells 3x 3x 3
 Maximum number of reciprocal cells 3x 3x 3

 FEWALD executed in parallel
    FEWALD:  cpu time    0.00: real time    0.00


----------------------------------------- Iteration    1(   1)  ---------------------------------------


    POTLOK:  cpu time    0.03: real time    0.04
    SETDIJ:  cpu time    0.02: real time    0.02
     EDDAV:  cpu time    0.41: real time    0.41
       DOS:  cpu time    0.00: real time    0.00
    --------------------------------------------
      LOOP:  cpu time    0.46: real time    0.48

 eigenvalue-minimisations  :    96
 total energy-change (2. order) :-0.1012657E+02  (-0.7955886E+03)
 number of electron      32.0000000 magnetization 
 augmentation part       32.0000000 magnetization 

 Free energy of the ion-electron system (eV)
  ---------------------------------------------------
  alpha Z        PSCENC =        12.68944982
  Ewald energy   TEWEN  =      -907.56621341
  -1/2 Hartree   DENC   =       -45.63652822
  -exchange  EXHF       =         0.00000000
  -V(xc)+E(xc)   XCENC  =       -76.79671097
  PAW double counting   =       265.93453375     -123.69690146
  entropy T*S    EENTRO =        -0.00025481
  eigenvalues    EBANDS =        38.57207799
  atomic energy  EATOM  =       826.37398168
  ---------------------------------------------------
  free energy    TOTEN  =       -10.12656562 eV

  energy without entropy =      -10.12631081  energy(sigma->0) =      -10.12643822


--------------------------------------------------------------------------------------------------------




 average (electrostatic) potential at core
  the test charge radii are     0.9892
  (the norm of the test charge is              1.0000)
       1 -84.3481       2 -84.3521       3 -84.3574       4 -84.3468       5 -84.3483
       6 -84.3478       7 -84.3488       8 -84.3558
 
 
 
 E-fermi :   6.6069     XC(G=0):  -9.5533     alpha+bet :-11.7379


 k-point   1 :       0.0000    0.0000    0.0000
  band No.  band energies     occupation 
      1      -6.5896      2.00000
      2      -2.4099      2.00000
      3      -2.2553      2.00000
      4      -2.1233      2.00000
      5      -2.0290      2.00000
      6      -1.8741      2.00000
      7      -1.6754      2.00000
      8       2.7435      2.00000
      9       2.8520      2.00000
     10       2.9945      2.00000
     11       3.1583      2.00000
     12       3.3442      2.00000
     13       4.0731      2.00000
     14       6.1443      2.00000
     15       6.3682      2.00000
     16       6.5645      1.99725
     17       6.6492      0.00275
     18       6.8131      0.00000
     19       6.9110      0.00000
     20       7.1736      0.00000
     21       7.3710      0.00000
     22       8.0456      0.00000
     23       8.9800      0.00000
     24       9.3756      0.00000
     25      10.4526      0.00000
     26      11.4510      0.00000
     27      13.5067      0.00000
     28      14.7742      0.00000
     29      16.5566      0.00000
     30      16.8951      0.00000
     31      17.3611      0.00000
     32      17.5883      0.00000
     33      17.9263      0.00000
     34      18.1333      0.00000
     35      18.4943      0.00000
     36      18.8776      0.00000
     37      19.3771      0.00000
     38      19.5073      0.00000
     39      19.8527      0.00000
     40      20.2518      0.00000
     41      21.0961      0.00000
     42      21.6852      0.00000
     43      22.1792      0.00000
     44      22.7724      0.00000
     45      23.9077      0.00000
     46      24.4007      0.00000
     47      24.8111      0.00000
     48      25.8376      0.00000


--------------------------------------------------------------------------------------------------------


 soft charge-density along one line, spin component           1
         0         1         2         3         4         5         6         7         8         9
 total charge-density along one line
 
 pseudopotential strength for first ion, spin component:           1
 18.662   0.000   0.000   0.000   0.000   0.000   0.000   0.000
  0.000   0.006   0.000   0.000   0.000   0.000   0.000   0.000
  0.000   0.000   4.216   0.000   0.000  -0.004   0.000   0.000
  0.000   0.000   0.000   4.216   0.000   0.000  -0.004   0.000
  0.000   0.000   0.000   0.000   4.216   0.000   0.000  -0.004
  0.000   0.000  -0.004   0.000   0.000   0.005   0.000   0.000
  0.000   0.000   0.000  -0.004   0.000   0.000   0.005   0.000
  0.000   0.000   0.000   0.000  -0.004   0.000   0.000   0.005
 total augmentation occupancy for first ion, spin component:           1
  2.000   0.000   0.000   0.000   0.000   0.000   0.000   0.000
  0.000   0.000   0.000   0.000   0.000   0.000   0.000   0.000
  0.000   0.000   0.667   0.000   0.000   0.000   0.000   0.000
  0.000   0.000   0.000   0.667   0.000   0.000   0.000   0.000
  0.000   0.000   0.000   0.000   0.667   0.000   0.000   0.000
  0.000   0.000   0.000   0.000   0.000   0.000   0.000   0.000
  0.000   0.000   0.000   0.000   0.000   0.000   0.000   0.000
  0.000   0.000   0.000   0.000   0.000   0.000   0.000   0.000


----------------------------------------- Iteration    1(   2)  ---------------------------------------


     EDDAV:  cpu time    0.97: real time    0.97
       DOS:  cpu time    0.00: real time    0.00
    --------------------------------------------
      LOOP:  cpu time    0.97: real time    0.98

 eigenvalue-minimisations  :   144
 total energy-change (2. order) :-0.2432320E+02  (-0.2432059E+02)
 number of electron      32.0000000 magnetization 
 augmentation part       32.0000000 magnetization 

 Free energy of the ion-electron system (eV)
  ---------------------------------------------------
  alpha Z        PSCENC =        12.68944982
  Ewald energy   TEWEN  =      -907.56621341
  -1/2 Hartree   DENC   =       -45.63652822
  -exchange  EXHF       =         0.00000000
  -V(xc)+E(xc)   XCENC  =       -76.79671097
  PAW double counting   =       265.93453375     -123.69690146
  entropy T*S    EENTRO =         0.00000000
  eigenvalues    EBANDS =        14.24862650
  atomic energy  EATOM  =       826.37398168
  ---------------------------------------------------
  free energy    TOTEN  =       -34.44976230 eV

  energy without entropy =      -34.44976230  energy(sigma->0) =      -34.44976230


--------------------------------------------------------------------------------------------------------




 average (electrostatic) potential at core
  the test charge radii are     0.9892
  (the norm of the test charge is              1.0000)
       1 -84.3481       2 -84.3521       3 -84.3574       4 -84.3468       5 -84.3483
       6 -84.3478       7 -84.3488       8 -84.3558
 
 
 
 E-fermi :   5.2471     XC(G=0):  -9.5533     alpha+bet :-11.7379


 k-point   1 :       0.0000    0.0000    0.0000
  band No.  band energies     occupation 
      1      -6.6372      2.00000
      2      -2.6476      2.00000
      3      -2.6429      2.00000
      4      -2.6284      2.00000
      5      -2.6243      2.00000
      6      -2.6199      2.00000
      7      -2.6120      2.00000
      8       2.3715      2.00000
      9       2.3770      2.00000
     10       2.3807      2.00000
     11       2.3835      2.00000
     12       2.3893      2.00000
     13       2.3942      2.00000
     14       5.0620      2.00000
     15       5.0752      2.00000
     16       5.1033      2.00000
     17       6.1431      0.00000
     18       6.1471      0.00000
     19       6.1553      0.00000
     20       6.1594      0.00000
     21       6.1617      0.00000
     22       6.1731      0.00000
     23       7.8423      0.00000
     24       7.8619      0.00000
     25       7.8673      0.00000
     26       8.1266      0.00000
     27      13.2003      0.00000
     28      13.2617      0.00000
     29      13.2700      0.00000
     30      15.1015      0.00000
     31      15.1320      0.00000
     32      15.1758      0.00000
     33      15.2501      0.00000
     34      15.3097      0.00000
     35      15.6336      0.00000
     36      16.3761      0.00000
     37      16.4169      0.00000
     38      16.4534      0.00000
     39      16.5335      0.00000
     40      16.7177      0.00000
     41      16.7544      0.00000
     42      16.7649      0.00000
     43      16.8659      0.00000
     44      17.2250      0.00000
     45      17.9087      0.00000
     46      17.9691      0.00000
     47      17.9911      0.00000
     48      18.0125      0.00000


--------------------------------------------------------------------------------------------------------


 soft charge-density along one line, spin component           1
         0         1         2         3         4         5         6         7         8         9
 total charge-density along one line
 
 pseudopotential strength for first ion, spin component:           1
 18.662   0.000   0.000   0.000   0.000   0.000   0.000   0.000
  0.000   0.006   0.000   0.000   0.000   0.000   0.000   0.000
  0.000   0.000   4.216   0.000   0.000  -0.004   0.000   0.000
  0.000   0.000   0.000   4.216   0.000   0.000  -0.004   0.000
  0.000   0.000   0.000   0.000   4.216   0.000   0.000  -0.004
  0.000   0.000  -0.004   0.000   0.000   0.005   0.000   0.000
  0.000   0.000   0.000  -0.004   0.000   0.000   0.005   0.000
  0.000   0.000   0.000   0.000  -0.004   0.000   0.000   0.005
 total augmentation occupancy for first ion, spin component:           1
  2.000   0.000   0.000   0.000   0.000   0.000   0.000   0.000
  0.000   0.000   0.000   0.000   0.000   0.000   0.000   0.000
  0.000   0.000   0.667   0.000   0.000   0.000   0.000   0.000
  0.000   0.000   0.000   0.667   0.000   0.000   0.000   0.000
  0.000   0.000   0.000   0.000   0.667   0.000   0.000   0.000
  0.000   0.000   0.000   0.000   0.000   0.000   0.000   0.000
  0.000   0.000   0.000   0.000   0.000   0.000   0.000   0.000
  0.000   0.000   0.000   0.000   0.000   0.000   0.000   0.000


----------------------------------------- Iteration    1(   3)  ---------------------------------------


     EDDAV:  cpu time    0.40: real time    0.40
       DOS:  cpu time    0.00: real time    0.00
    --------------------------------------------
      LOOP:  cpu time    0.41: real time    0.41

 eigenvalue-minimisations  :    96
 total energy-change (2. order) :-0.1673891E+00  (-0.1673891E+00)
 number of electron      32.0000000 magnetization 
 augmentation part       32.0000000 magnetization 

 Free energy of the ion-electron system (eV)
  ---------------------------------------------------
  alpha Z        PSCENC =        12.68944982
  Ewald energy   TEWEN  =      -907.56621341
  -1/2 Hartree   DENC   =       -45.63652822
  -exchange  EXHF       =         0.00000000
  -V(xc)+E(xc)   XCENC  =       -76.79671097
  PAW double counting   =       265.93453375     -123.69690146
  entropy T*S    EENTRO =         0.00000000
  eigenvalues    EBANDS =        14.08123742
  atomic energy  EATOM  =       826.37398168
  ---------------------------------------------------
  free energy    TOTEN  =       -34.61715138 eV

  energy without entropy =      -34.61715138  energy(sigma->0) =      -34.61715138


--------------------------------------------------------------------------------------------------------




 average (electrostatic) potential at core
  the test charge radii are     0.9892
  (the norm of the test charge is              1.0000)
       1 -84.3481       2 -84.3521       3 -84.3574       4 -84.3468       5 -84.3483
       6 -84.3478       7 -84.3488       8 -84.3558
 
 
 
 E-fermi :   5.2244     XC(G=0):  -9.5533     alpha+bet :-11.7379


 k-point   1 :       0.0000    0.0000    0.0000
  band No.  band energies     occupation 
      1      -6.6372      2.00000
      2      -2.6501      2.00000
      3      -2.6440      2.00000
      4      -2.6304      2.00000
      5      -2.6271      2.00000
      6      -2.6219      2.00000
      7      -2.6148      2.00000
      8       2.3684      2.00000
      9       2.3708      2.00000
     10       2.3774      2.00000
     11       2.3786      2.00000
     12       2.3844      2.00000
     13       2.3865      2.00000
     14       5.0496      2.00000
     15       5.0575      2.00000
     16       5.0930      2.00000
     17       6.1400      0.00000
     18       6.1422      0.00000
     19       6.1522      0.00000
     20       6.1571      0.00000
     21       6.1582      0.00000
     22       6.1694      0.00000
     23       7.8349      0.00000
     24       7.8546      0.00000
     25       7.8590      0.00000
     26       8.1178      0.00000
     27      13.1845      0.00000
     28      13.1866      0.00000
     29      13.2693      0.00000
     30      15.0851      0.00000
     31      15.0870      0.00000
     32      15.0973      0.00000
     33      15.1129      0.00000
     34      15.1262      0.00000
     35      15.1763      0.00000
     36      16.3119      0.00000
     37      16.3288      0.00000
     38      16.3403      0.00000
     39      16.3678      0.00000
     40      16.4314      0.00000
     41      16.4870      0.00000
     42      16.7019      0.00000
     43      16.7225      0.00000
     44      16.8190      0.00000
     45      17.8827      0.00000
     46      17.9013      0.00000
     47      17.9143      0.00000
     48      17.9422      0.00000


--------------------------------------------------------------------------------------------------------


 soft charge-density along one line, spin component           1
         0         1         2         3         4         5         6         7         8         9
 total charge-density along one line
 
 pseudopotential strength for first ion, spin component:           1
 18.662   0.000   0.000   0.000   0.000   0.000   0.000   0.000
  0.000   0.006   0.000   0.000   0.000   0.000   0.000   0.000
  0.000   0.000   4.216   0.000   0.000  -0.004   0.000   0.000
  0.000   0.000   0.000   4.216   0.000   0.000  -0.004   0.000
  0.000   0.000   0.000   0.000   4.216   0.000   0.000  -0.004
  0.000   0.000  -0.004   0.000   0.000   0.005   0.000   0.000
  0.000   0.000   0.000  -0.004   0.000   0.000   0.005   0.000
  0.000   0.000   0.000   0.000  -0.004   0.000   0.000   0.005
 total augmentation occupancy for first ion, spin component:           1
  2.000   0.000   0.000   0.000   0.000   0.000   0.000   0.000
  0.000   0.000   0.000   0.000   0.000   0.000   0.000   0.000
  0.000   0.000   0.667   0.000   0.000   0.000   0.000   0.000
  0.000   0.000   0.000   0.667   0.000   0.000   0.000   0.000
  0.000   0.000   0.000   0.000   0.667   0.000   0.000   0.000
  0.000   0.000   0.000   0.000   0.000   0.000   0.000   0.000
  0.000   0.000   0.000   0.000   0.000   0.000   0.000   0.000
  0.000   0.000   0.000   0.000   0.000   0.000   0.000   0.000


----------------------------------------- Iteration    1(   4)  ---------------------------------------


     EDDAV:  cpu time    2.01: real time    2.01
       DOS:  cpu time    0.00: real time    0.00
    --------------------------------------------
      LOOP:  cpu time    2.02: real time    2.02

 eigenvalue-minimisations  :   192
 total energy-change (2. order) :-0.3545916E-03  (-0.3545916E-03)
 number of electron      32.0000000 magnetization 
 augmentation part       32.0000000 magnetization 

 Free energy of the ion-electron system (eV)
  ---------------------------------------------------
  alpha Z        PSCENC =        12.68944982
  Ewald energy   TEWEN  =      -907.56621341
  -1/2 Hartree   DENC   =       -45.63652822
  -exchange  EXHF       =         0.00000000
  -V(xc)+E(xc)   XCENC  =       -76.79671097
  PAW double counting   =       265.93453375     -123.69690146
  entropy T*S    EENTRO =         0.00000000
  eigenvalues    EBANDS =        14.08088283
  atomic energy  EATOM  =       826.37398168
  ---------------------------------------------------
  free energy    TOTEN  =       -34.61750597 eV

  energy without entropy =      -34.61750597  energy(sigma->0) =      -34.61750597


--------------------------------------------------------------------------------------------------------




 average (electrostatic) potential at core
  the test charge radii are     0.9892
  (the norm of the test charge is              1.0000)
       1 -84.3481       2 -84.3521       3 -84.3574       4 -84.3468       5 -84.3483
       6 -84.3478       7 -84.3488       8 -84.3558
 
 
 
 E-fermi :   5.2031     XC(G=0):  -9.5533     alpha+bet :-11.7379


 k-point   1 :       0.0000    0.0000    0.0000
  band No.  band energies     occupation 
      1      -6.6372      2.00000
      2      -2.6501      2.00000
      3      -2.6440      2.00000
      4      -2.6304      2.00000
      5      -2.6271      2.00000
      6      -2.6219      2.00000
      7      -2.6148      2.00000
      8       2.3684      2.00000
      9       2.3708      2.00000
     10       2.3774      2.00000
     11       2.3786      2.00000
     12       2.3844      2.00000
     13       2.3865      2.00000
     14       5.0496      2.00000
     15       5.0574      2.00000
     16       5.0930      2.00000
     17       6.1400      0.00000
     18       6.1422      0.00000
     19       6.1522      0.00000
     20       6.1571      0.00000
     21       6.1582      0.00000
     22       6.1694      0.00000
     23       7.8349      0.00000
     24       7.8546      0.00000
     25       7.8590      0.00000
     26       8.1178      0.00000
     27      13.1837      0.00000
     28      13.1838      0.00000
     29      13.2693      0.00000
     30      15.0768      0.00000
     31      15.0792      0.00000
     32      15.0832      0.00000
     33      15.0865      0.00000
     34      15.0894      0.00000
     35      15.0936      0.00000
     36      16.2970      0.00000
     37      16.2982      0.00000
     38      16.3052      0.00000
     39      16.3155      0.00000
     40      16.3190      0.00000
     41      16.3268      0.00000
     42      16.6883      0.00000
     43      16.7101      0.00000
     44      16.7149      0.00000
     45      17.8653      0.00000
     46      17.8735      0.00000
     47      17.8862      0.00000
     48      17.8982      0.00000


--------------------------------------------------------------------------------------------------------


 soft charge-density along one line, spin component           1
         0         1         2         3         4         5         6         7         8         9
 total charge-density along one line
 
 pseudopotential strength for first ion, spin component:           1
 18.662   0.000   0.000   0.000   0.000   0.000   0.000   0.000
  0.000   0.006   0.000   0.000   0.000   0.000   0.000   0.000
  0.000   0.000   4.216   0.000   0.000  -0.004   0.000   0.000
  0.000   0.000   0.000   4.216   0.000   0.000  -0.004   0.000
  0.000   0.000   0.000   0.000   4.216   0.000   0.000  -0.004
  0.000   0.000  -0.004   0.000   0.000   0.005   0.000   0.000
  0.000   0.000   0.000  -0.004   0.000   0.000   0.005   0.000
  0.000   0.000   0.000   0.000  -0.004   0.000   0.000   0.005
 total augmentation occupancy for first ion, spin component:           1
  2.000   0.000   0.000   0.000   0.000   0.000   0.000   0.000
  0.000   0.000   0.000   0.000   0.000   0.000   0.000   0.000
  0.000   0.000   0.667   0.000   0.000   0.000   0.000   0.000
  0.000   0.000   0.000   0.667   0.000   0.000   0.000   0.000
  0.000   0.000   0.000   0.000   0.667   0.000   0.000   0.000
  0.000   0.000   0.000   0.000   0.000   0.000   0.000   0.000
  0.000   0.000   0.000   0.000   0.000   0.000   0.000   0.000
  0.000   0.000   0.000   0.000   0.000   0.000   0.000   0.000


----------------------------------------- Iteration    1(   5)  ---------------------------------------


     EDDAV:  cpu time    0.38: real time    0.38
       DOS:  cpu time    0.00: real time    0.00
    CHARGE:  cpu time    0.02: real time    0.02
    MIXING:  cpu time    0.00: real time    0.00
    --------------------------------------------
      LOOP:  cpu time    0.41: real time    0.42

 eigenvalue-minimisations  :    96
 total energy-change (2. order) :-0.3051468E-08  (-0.3050676E-08)
 number of electron      31.9999999 magnetization 
 augmentation part       -1.8053367 magnetization 

 Broyden mixing:
  rms(total) = 0.79306E+00    rms(broyden)= 0.79301E+00
  rms(prec ) = 0.15229E+01
  weight for this iteration     100.00

 Free energy of the ion-electron system (eV)
  ---------------------------------------------------
  alpha Z        PSCENC =        12.68944982
  Ewald energy   TEWEN  =      -907.56621341
  -1/2 Hartree   DENC   =       -45.63652822
  -exchange  EXHF       =         0.00000000
  -V(xc)+E(xc)   XCENC  =       -76.79671097
  PAW double counting   =       265.93453375     -123.69690146
  entropy T*S    EENTRO =         0.00000000
  eigenvalues    EBANDS =        14.08088283
  atomic energy  EATOM  =       826.37398168
  ---------------------------------------------------
  free energy    TOTEN  =       -34.61750598 eV

  energy without entropy =      -34.61750598  energy(sigma->0) =      -34.61750598


--------------------------------------------------------------------------------------------------------




 average (electrostatic) potential at core
  the test charge radii are     0.9892
  (the norm of the test charge is              1.0000)
       1 -84.3481       2 -84.3521       3 -84.3574       4 -84.3468       5 -84.3483
       6 -84.3478       7 -84.3488       8 -84.3558
 
 
 
 E-fermi :   5.2001     XC(G=0):  -9.5533     alpha+bet :-11.7379


 k-point   1 :       0.0000    0.0000    0.0000
  band No.  band energies     occupation 
      1      -6.6372      2.00000
      2      -2.6501      2.00000
      3      -2.6440      2.00000
      4      -2.6304      2.00000
      5      -2.6271      2.00000
      6      -2.6219      2.00000
      7      -2.6148      2.00000
      8       2.3684      2.00000
      9       2.3708      2.00000
     10       2.3774      2.00000
     11       2.3786      2.00000
     12       2.3844      2.00000
     13       2.3865      2.00000
     14       5.0496      2.00000
     15       5.0574      2.00000
     16       5.0930      2.00000
     17       6.1400      0.00000
     18       6.1422      0.00000
     19       6.1522      0.00000
     20       6.1571      0.00000
     21       6.1582      0.00000
     22       6.1694      0.00000
     23       7.8349      0.00000
     24       7.8546      0.00000
     25       7.8590      0.00000
     26       8.1178      0.00000
     27      13.1837      0.00000
     28      13.1838      0.00000
     29      13.2693      0.00000
     30      15.0767      0.00000
     31      15.0791      0.00000
     32      15.0832      0.00000
     33      15.0865      0.00000
     34      15.0893      0.00000
     35      15.0936      0.00000
     36      16.2968      0.00000
     37      16.2979      0.00000
     38      16.3049      0.00000
     39      16.3150      0.00000
     40      16.3187      0.00000
     41      16.3264      0.00000
     42      16.6882      0.00000
     43      16.7099      0.00000
     44      16.7147      0.00000
     45      17.8609      0.00000
     46      17.8664      0.00000
     47      17.8739      0.00000
     48      17.8918      0.00000


--------------------------------------------------------------------------------------------------------


 soft charge-density along one line, spin component           1
         0         1         2         3         4         5         6         7         8         9
 total charge-density along one line
 
 pseudopotential strength for first ion, spin component:           1
 18.662   0.000   0.000   0.000   0.000   0.000   0.000   0.000
  0.000   0.006   0.000   0.000   0.000   0.000   0.000   0.000
  0.000   0.000   4.216   0.000   0.000  -0.004   0.000   0.000
  0.000   0.000   0.000   4.216   0.000   0.000  -0.004   0.000
  0.000   0.000   0.000   0.000   4.216   0.000   0.000  -0.004
  0.000   0.000  -0.004   0.000   0.000   0.005   0.000   0.000
  0.000   0.000   0.000  -0.004   0.000   0.000   0.005   0.000
  0.000   0.000   0.000   0.000  -0.004   0.000   0.000   0.005
 total augmentation occupancy for first ion, spin component:           1
  1.380  -1.051  -0.001   0.001   0.002   0.001  -0.002  -0.002
 -1.051   0.917   0.001  -0.002  -0.001  -0.001   0.002   0.003
 -0.001   0.001   1.166   0.002   0.001  -0.758  -0.003  -0.002
  0.001  -0.002   0.002   1.162  -0.001  -0.003  -0.756   0.001
  0.002  -0.001   0.001  -0.001   1.165  -0.002   0.001  -0.758
  0.001  -0.001  -0.758  -0.003  -0.002   0.569   0.004   0.002
 -0.002   0.002  -0.003  -0.756   0.001   0.004   0.567  -0.001
 -0.002   0.003  -0.002   0.001  -0.758   0.002  -0.001   0.569


----------------------------------------- Iteration    1(   6)  ---------------------------------------


    POTLOK:  cpu time    0.02: real time    0.02
    SETDIJ:  cpu time    0.02: real time    0.02
    EDDIAG:  cpu time    0.03: real time    0.03
  RMM-DIIS:  cpu time    0.03: real time    0.03
    ORTHCH:  cpu time    0.01: real time    0.01
       DOS:  cpu time    0.00: real time    0.00
    CHARGE:  cpu time    0.02: real time    0.02
    MIXING:  cpu time    0.00: real time    0.00
    --------------------------------------------
      LOOP:  cpu time    0.13: real time    0.14

 eigenvalue-minimisations  :    96
 total energy-change (2. order) : 0.1001731E+01  (-0.3199026E-01)
 number of electron      31.9999999 magnetization 
 augmentation part       -1.7684045 magnetization 

 Broyden mixing:
  rms(total) = 0.47400E+00    rms(broyden)= 0.47400E+00
  rms(prec ) = 0.91067E+00
  weight for this iteration     100.00

 eigenvalues of (default mixing * dielectric matrix)
  average eigenvalue GAMMA=   2.4573
  2.4573

 Free energy of the ion-electron system (eV)
  ---------------------------------------------------
  alpha Z        PSCENC =        12.68944982
  Ewald energy   TEWEN  =      -907.56621341
  -1/2 Hartree   DENC   =       -54.68309915
  -exchange  EXHF       =         0.00000000
  -V(xc)+E(xc)   XCENC  =       -75.44940074
  PAW double counting   =       286.06090987     -144.35922521
  entropy T*S    EENTRO =         0.00000000
  eigenvalues    EBANDS =        23.31782223
  atomic energy  EATOM  =       826.37398168
  ---------------------------------------------------
  free energy    TOTEN  =       -33.61577491 eV

  energy without entropy =      -33.61577491  energy(sigma->0) =      -33.61577491


--------------------------------------------------------------------------------------------------------




 average (electrostatic) potential at core
  the test charge radii are     0.9892
  (the norm of the test charge is              1.0000)
       1 -83.8316       2 -83.8336       3 -83.8361       4 -83.8310       5 -83.8317
       6 -83.8314       7 -83.8320       8 -83.8354
 
 
 
 E-fermi :   5.5609     XC(G=0):  -9.4504     alpha+bet :-11.7379


 k-point   1 :       0.0000    0.0000    0.0000
  band No.  band energies     occupation 
      1      -6.3788      2.00000
      2      -2.3495      2.00000
      3      -2.3441      2.00000
      4      -2.3327      2.00000
      5      -2.3281      2.00000
      6      -2.3234      2.00000
      7      -2.3171      2.00000
      8       2.6303      2.00000
      9       2.6323      2.00000
     10       2.6384      2.00000
     11       2.6396      2.00000
     12       2.6449      2.00000
     13       2.6467      2.00000
     14       5.3833      2.00000
     15       5.3910      2.00000
     16       5.4258      2.00000
     17       6.2552      0.00000
     18       6.2571      0.00000
     19       6.2673      0.00000
     20       6.2714      0.00000
     21       6.2720      0.00000
     22       6.2827      0.00000
     23       8.0420      0.00000
     24       8.0621      0.00000
     25       8.0665      0.00000
     26       8.4862      0.00000
     27      13.3050      0.00000
     28      13.3569      0.00000
     29      13.3569      0.00000
     30      15.3732      0.00000
     31      15.3755      0.00000
     32      15.3792      0.00000
     33      15.3825      0.00000
     34      15.3855      0.00000
     35      15.3894      0.00000
     36      16.5339      0.00000
     37      16.5347      0.00000
     38      16.5412      0.00000
     39      16.5505      0.00000
     40      16.5538      0.00000
     41      16.5606      0.00000
     42      16.7327      0.00000
     43      16.7546      0.00000
     44      16.7595      0.00000
     45      18.1507      0.00000
     46      18.1560      0.00000
     47      18.1620      0.00000
     48      18.1759      0.00000


--------------------------------------------------------------------------------------------------------


 soft charge-density along one line, spin component           1
         0         1         2         3         4         5         6         7         8         9
 total charge-density along one line
 
 pseudopotential strength for first ion, spin component:           1
 18.635  -0.001   0.000   0.000   0.000   0.000   0.000   0.000
 -0.001   0.006   0.000   0.000   0.000   0.000   0.000   0.000
  0.000   0.000   4.221   0.000   0.000  -0.004   0.000   0.000
  0.000   0.000   0.000   4.221   0.000   0.000  -0.004   0.000
  0.000   0.000   0.000   0.000   4.221   0.000   0.000  -0.004
  0.000   0.000  -0.004   0.000   0.000   0.005   0.000   0.000
  0.000   0.000   0.000  -0.004   0.000   0.000   0.005   0.000
  0.000   0.000   0.000   0.000  -0.004   0.000   0.000   0.005
 total augmentation occupancy for first ion, spin component:           1
  1.351  -1.089  -0.001   0.001   0.002   0.001  -0.002  -0.003
 -1.089   0.996   0.000  -0.002  -0.001  -0.001   0.002   0.003
 -0.001   0.000   1.148   0.002   0.001  -0.782  -0.003  -0.002
  0.001  -0.002   0.002   1.144  -0.001  -0.003  -0.780   0.001
  0.002  -0.001   0.001  -0.001   1.148  -0.002   0.001  -0.782
  0.001  -0.001  -0.782  -0.003  -0.002   0.608   0.004   0.002
 -0.002   0.002  -0.003  -0.780   0.001   0.004   0.606  -0.001
 -0.003   0.003  -0.002   0.001  -0.782   0.002  -0.001   0.608


----------------------------------------- Iteration    1(   7)  ---------------------------------------


    POTLOK:  cpu time    0.02: real time    0.02
    SETDIJ:  cpu time    0.02: real time    0.02
    EDDIAG:  cpu time    0.03: real time    0.03
  RMM-DIIS:  cpu time    0.03: real time    0.03
    ORTHCH:  cpu time    0.01: real time    0.01
       DOS:  cpu time    0.00: real time    0.00
    CHARGE:  cpu time    0.02: real time    0.02
    MIXING:  cpu time    0.00: real time    0.00
    --------------------------------------------
      LOOP:  cpu time    0.12: real time    0.13

 eigenvalue-minimisations  :    96
 total energy-change (2. order) : 0.4246799E+00  (-0.7390669E-01)
 number of electron      31.9999999 magnetization 
 augmentation part       -1.7214506 magnetization 

 Broyden mixing:
  rms(total) = 0.46244E-01    rms(broyden)= 0.46234E-01
  rms(prec ) = 0.78443E-01
  weight for this iteration     100.00

 eigenvalues of (default mixing * dielectric matrix)
  average eigenvalue GAMMA=   2.5299
  2.5299  2.5299

 Free energy of the ion-electron system (eV)
  ---------------------------------------------------
  alpha Z        PSCENC =        12.68944982
  Ewald energy   TEWEN  =      -907.56621341
  -1/2 Hartree   DENC   =       -70.51447389
  -exchange  EXHF       =         0.00000000
  -V(xc)+E(xc)   XCENC  =       -73.00920392
  PAW double counting   =       313.72568124     -172.73772501
  entropy T*S    EENTRO =         0.00000000
  eigenvalues    EBANDS =        37.84740851
  atomic energy  EATOM  =       826.37398168
  ---------------------------------------------------
  free energy    TOTEN  =       -33.19109497 eV

  energy without entropy =      -33.19109497  energy(sigma->0) =      -33.19109497


--------------------------------------------------------------------------------------------------------




 average (electrostatic) potential at core
  the test charge radii are     0.9892
  (the norm of the test charge is              1.0000)
       1 -83.1449       2 -83.1460       3 -83.1481       4 -83.1437       5 -83.1450
       6 -83.1446       7 -83.1448       8 -83.1472
 
 
 
 E-fermi :   6.0939     XC(G=0):  -9.2018     alpha+bet :-11.7379


 k-point   1 :       0.0000    0.0000    0.0000
  band No.  band energies     occupation 
      1      -5.9621      2.00000
      2      -1.8819      2.00000
      3      -1.8769      2.00000
      4      -1.8671      2.00000
      5      -1.8616      2.00000
      6      -1.8570      2.00000
      7      -1.8517      2.00000
      8       3.0438      2.00000
      9       3.0454      2.00000
     10       3.0513      2.00000
     11       3.0518      2.00000
     12       3.0572      2.00000
     13       3.0585      2.00000
     14       5.9084      2.00000
     15       5.9159      2.00000
     16       5.9497      2.00000
     17       6.5144      0.00000
     18       6.5160      0.00000
     19       6.5265      0.00000
     20       6.5280      0.00000
     21       6.5313      0.00000
     22       6.5397      0.00000
     23       8.3668      0.00000
     24       8.3873      0.00000
     25       8.3918      0.00000
     26       9.0452      0.00000
     27      13.6013      0.00000
     28      13.6204      0.00000
     29      13.6205      0.00000
     30      15.8236      0.00000
     31      15.8259      0.00000
     32      15.8295      0.00000
     33      15.8319      0.00000
     34      15.8354      0.00000
     35      15.8389      0.00000
     36      16.8861      0.00000
     37      16.9091      0.00000
     38      16.9141      0.00000
     39      16.9543      0.00000
     40      16.9559      0.00000
     41      16.9610      0.00000
     42      16.9695      0.00000
     43      16.9725      0.00000
     44      16.9784      0.00000
     45      18.6476      0.00000
     46      18.6552      0.00000
     47      18.6621      0.00000
     48      18.6692      0.00000


--------------------------------------------------------------------------------------------------------


 soft charge-density along one line, spin component           1
         0         1         2         3         4         5         6         7         8         9
 total charge-density along one line
 
 pseudopotential strength for first ion, spin component:           1
 18.596  -0.001   0.000   0.000   0.000   0.000   0.000   0.000
 -0.001   0.006   0.000   0.000   0.000   0.000   0.000   0.000
  0.000   0.000   4.227   0.000   0.000  -0.005   0.000   0.000
  0.000   0.000   0.000   4.227   0.000   0.000  -0.005   0.000
  0.000   0.000   0.000   0.000   4.227   0.000   0.000  -0.005
  0.000   0.000  -0.005   0.000   0.000   0.005   0.000   0.000
  0.000   0.000   0.000  -0.005   0.000   0.000   0.005   0.000
  0.000   0.000   0.000   0.000  -0.005   0.000   0.000   0.005
 total augmentation occupancy for first ion, spin component:           1
  1.314  -1.111  -0.001   0.001   0.003   0.001  -0.002  -0.004
 -1.111   1.057   0.000  -0.001  -0.001  -0.001   0.002   0.003
 -0.001   0.000   1.123   0.002   0.001  -0.805  -0.003  -0.002
  0.001  -0.001   0.002   1.120  -0.001  -0.003  -0.803   0.001
  0.003  -0.001   0.001  -0.001   1.123  -0.002   0.001  -0.805
  0.001  -0.001  -0.805  -0.003  -0.002   0.652   0.004   0.002
 -0.002   0.002  -0.003  -0.803   0.001   0.004   0.650  -0.002
 -0.004   0.003  -0.002   0.001  -0.805   0.002  -0.002   0.652


----------------------------------------- Iteration    1(   8)  ---------------------------------------


    POTLOK:  cpu time    0.02: real time    0.02
    SETDIJ:  cpu time    0.02: real time    0.02
    EDDIAG:  cpu time    0.02: real time    0.02
  RMM-DIIS:  cpu time    0.03: real time    0.03
    ORTHCH:  cpu time    0.01: real time    0.01
       DOS:  cpu time    0.00: real time    0.00
    CHARGE:  cpu time    0.02: real time    0.02
    MIXING:  cpu time    0.00: real time    0.00
    --------------------------------------------
      LOOP:  cpu time    0.12: real time    0.12

 eigenvalue-minimisations  :    96
 total energy-change (2. order) :-0.3197965E-01  (-0.2160524E-02)
 number of electron      31.9999999 magnetization 
 augmentation part       -1.7275454 magnetization 

 Broyden mixing:
  rms(total) = 0.74867E-02    rms(broyden)= 0.74862E-02
  rms(prec ) = 0.17944E-01
  weight for this iteration     100.00

 eigenvalues of (default mixing * dielectric matrix)
  average eigenvalue GAMMA=   2.1218
  1.2758  2.8658  2.2240

 Free energy of the ion-electron system (eV)
  ---------------------------------------------------
  alpha Z        PSCENC =        12.68944982
  Ewald energy   TEWEN  =      -907.56621341
  -1/2 Hartree   DENC   =       -70.39973949
  -exchange  EXHF       =         0.00000000
  -V(xc)+E(xc)   XCENC  =       -72.96563111
  PAW double counting   =       307.36612949     -166.19344266
  entropy T*S    EENTRO =         0.00000000
  eigenvalues    EBANDS =        37.47239105
  atomic energy  EATOM  =       826.37398168
  ---------------------------------------------------
  free energy    TOTEN  =       -33.22307463 eV

  energy without entropy =      -33.22307463  energy(sigma->0) =      -33.22307463


--------------------------------------------------------------------------------------------------------




 average (electrostatic) potential at core
  the test charge radii are     0.9892
  (the norm of the test charge is              1.0000)
       1 -83.2466       2 -83.2497       3 -83.2537       4 -83.2452       5 -83.2466
       6 -83.2462       7 -83.2470       8 -83.2524
 
 
 
 E-fermi :   6.0322     XC(G=0):  -9.1504     alpha+bet :-11.7379


 k-point   1 :       0.0000    0.0000    0.0000
  band No.  band energies     occupation 
      1      -5.9632      2.00000
      2      -1.8942      2.00000
      3      -1.8889      2.00000
      4      -1.8781      2.00000
      5      -1.8732      2.00000
      6      -1.8685      2.00000
      7      -1.8625      2.00000
      8       3.0320      2.00000
      9       3.0336      2.00000
     10       3.0400      2.00000
     11       3.0401      2.00000
     12       3.0459      2.00000
     13       3.0474      2.00000
     14       5.8922      2.00000
     15       5.8998      2.00000
     16       5.9337      2.00000
     17       6.5650      0.00000
     18       6.5667      0.00000
     19       6.5772      0.00000
     20       6.5791      0.00000
     21       6.5822      0.00000
     22       6.5910      0.00000
     23       8.3563      0.00000
     24       8.3766      0.00000
     25       8.3811      0.00000
     26       9.0381      0.00000
     27      13.6064      0.00000
     28      13.6065      0.00000
     29      13.7783      0.00000
     30      15.8091      0.00000
     31      15.8114      0.00000
     32      15.8151      0.00000
     33      15.8170      0.00000
     34      15.8205      0.00000
     35      15.8245      0.00000
     36      16.9226      0.00000
     37      16.9457      0.00000
     38      16.9508      0.00000
     39      16.9605      0.00000
     40      16.9625      0.00000
     41      16.9675      0.00000
     42      16.9760      0.00000
     43      16.9795      0.00000
     44      16.9856      0.00000
     45      18.6828      0.00000
     46      18.6920      0.00000
     47      18.6998      0.00000
     48      18.7059      0.00000


--------------------------------------------------------------------------------------------------------


 soft charge-density along one line, spin component           1
         0         1         2         3         4         5         6         7         8         9
 total charge-density along one line
 
 pseudopotential strength for first ion, spin component:           1
 18.599  -0.001   0.000   0.000   0.000   0.000   0.000   0.000
 -0.001   0.006   0.000   0.000   0.000   0.000   0.000   0.000
  0.000   0.000   4.224   0.000   0.000  -0.005   0.000   0.000
  0.000   0.000   0.000   4.224   0.000   0.000  -0.005   0.000
  0.000   0.000   0.000   0.000   4.224   0.000   0.000  -0.005
  0.000   0.000  -0.005   0.000   0.000   0.005   0.000   0.000
  0.000   0.000   0.000  -0.005   0.000   0.000   0.005   0.000
  0.000   0.000   0.000   0.000  -0.005   0.000   0.000   0.005
 total augmentation occupancy for first ion, spin component:           1
  1.320  -1.091  -0.001   0.001   0.003   0.001  -0.002  -0.003
 -1.091   1.019   0.000  -0.002  -0.001  -0.001   0.002   0.003
 -0.001   0.000   1.124   0.002   0.001  -0.801  -0.003  -0.002
  0.001  -0.002   0.002   1.121  -0.001  -0.004  -0.799   0.001
  0.003  -0.001   0.001  -0.001   1.124  -0.002   0.001  -0.801
  0.001  -0.001  -0.801  -0.004  -0.002   0.647   0.004   0.002
 -0.002   0.002  -0.003  -0.799   0.001   0.004   0.645  -0.001
 -0.003   0.003  -0.002   0.001  -0.801   0.002  -0.001   0.647


----------------------------------------- Iteration    1(   9)  ---------------------------------------


    POTLOK:  cpu time    0.02: real time    0.02
    SETDIJ:  cpu time    0.02: real time    0.02
    EDDIAG:  cpu time    0.02: real time    0.02
  RMM-DIIS:  cpu time    0.03: real time    0.03
    ORTHCH:  cpu time    0.01: real time    0.01
       DOS:  cpu time    0.00: real time    0.00
    CHARGE:  cpu time    0.02: real time    0.02
    MIXING:  cpu time    0.00: real time    0.00
    --------------------------------------------
      LOOP:  cpu time    0.12: real time    0.13

 eigenvalue-minimisations  :   107
 total energy-change (2. order) :-0.1137712E-02  (-0.1267363E-03)
 number of electron      31.9999999 magnetization 
 augmentation part       -1.7274639 magnetization 

 Broyden mixing:
  rms(total) = 0.41714E-02    rms(broyden)= 0.41713E-02
  rms(prec ) = 0.68333E-02
  weight for this iteration     100.00

 eigenvalues of (default mixing * dielectric matrix)
  average eigenvalue GAMMA=   2.2954
  0.9875  3.2272  2.6777  2.2891

 Free energy of the ion-electron system (eV)
  ---------------------------------------------------
  alpha Z        PSCENC =        12.68944982
  Ewald energy   TEWEN  =      -907.56621341
  -1/2 Hartree   DENC   =       -70.79645907
  -exchange  EXHF       =         0.00000000
  -V(xc)+E(xc)   XCENC  =       -72.90636903
  PAW double counting   =       307.71538101     -166.55305113
  entropy T*S    EENTRO =         0.00000000
  eigenvalues    EBANDS =        37.81906778
  atomic energy  EATOM  =       826.37398168
  ---------------------------------------------------
  free energy    TOTEN  =       -33.22421234 eV

  energy without entropy =      -33.22421234  energy(sigma->0) =      -33.22421234


--------------------------------------------------------------------------------------------------------




 average (electrostatic) potential at core
  the test charge radii are     0.9892
  (the norm of the test charge is              1.0000)
       1 -83.2328       2 -83.2351       3 -83.2379       4 -83.2321       5 -83.2327
       6 -83.2325       7 -83.2332       8 -83.2371
 
 
 
 E-fermi :   6.0466     XC(G=0):  -9.1362     alpha+bet :-11.7379


 k-point   1 :       0.0000    0.0000    0.0000
  band No.  band energies     occupation 
      1      -5.9519      2.00000
      2      -1.8827      2.00000
      3      -1.8775      2.00000
      4      -1.8672      2.00000
      5      -1.8620      2.00000
      6      -1.8574      2.00000
      7      -1.8516      2.00000
      8       3.0420      2.00000
      9       3.0436      2.00000
     10       3.0497      2.00000
     11       3.0500      2.00000
     12       3.0556      2.00000
     13       3.0571      2.00000
     14       5.9044      2.00000
     15       5.9119      2.00000
     16       5.9457      2.00000
     17       6.5790      0.00000
     18       6.5807      0.00000
     19       6.5913      0.00000
     20       6.5932      0.00000
     21       6.5962      0.00000
     22       6.6052      0.00000
     23       8.3639      0.00000
     24       8.3843      0.00000
     25       8.3887      0.00000
     26       9.0526      0.00000
     27      13.6117      0.00000
     28      13.6117      0.00000
     29      13.8106      0.00000
     30      15.8195      0.00000
     31      15.8218      0.00000
     32      15.8254      0.00000
     33      15.8278      0.00000
     34      15.8311      0.00000
     35      15.8349      0.00000
     36      16.9326      0.00000
     37      16.9557      0.00000
     38      16.9608      0.00000
     39      16.9727      0.00000
     40      16.9747      0.00000
     41      16.9796      0.00000
     42      16.9881      0.00000
     43      16.9915      0.00000
     44      16.9975      0.00000
     45      18.7007      0.00000
     46      18.7099      0.00000
     47      18.7184      0.00000
     48      18.7238      0.00000


--------------------------------------------------------------------------------------------------------


 soft charge-density along one line, spin component           1
         0         1         2         3         4         5         6         7         8         9
 total charge-density along one line
 
 pseudopotential strength for first ion, spin component:           1
 18.598  -0.001   0.000   0.000   0.000   0.000   0.000   0.000
 -0.001   0.006   0.000   0.000   0.000   0.000   0.000   0.000
  0.000   0.000   4.224   0.000   0.000  -0.005   0.000   0.000
  0.000   0.000   0.000   4.224   0.000   0.000  -0.005   0.000
  0.000   0.000   0.000   0.000   4.224   0.000   0.000  -0.005
  0.000   0.000  -0.005   0.000   0.000   0.005   0.000   0.000
  0.000   0.000   0.000  -0.005   0.000   0.000   0.005   0.000
  0.000   0.000   0.000   0.000  -0.005   0.000   0.000   0.005
 total augmentation occupancy for first ion, spin component:           1
  1.320  -1.086  -0.001   0.001   0.003   0.001  -0.002  -0.003
 -1.086   1.011   0.000  -0.002  -0.001  -0.001   0.002   0.003
 -0.001   0.000   1.124   0.002   0.001  -0.801  -0.003  -0.002
  0.001  -0.002   0.002   1.121  -0.001  -0.004  -0.798   0.001
  0.003  -0.001   0.001  -0.001   1.124  -0.002   0.001  -0.801
  0.001  -0.001  -0.801  -0.004  -0.002   0.647   0.004   0.002
 -0.002   0.002  -0.003  -0.798   0.001   0.004   0.645  -0.001
 -0.003   0.003  -0.002   0.001  -0.801   0.002  -0.001   0.647


----------------------------------------- Iteration    1(  10)  ---------------------------------------


    POTLOK:  cpu time    0.02: real time    0.02
    SETDIJ:  cpu time    0.02: real time    0.02
    EDDIAG:  cpu time    0.02: real time    0.02
  RMM-DIIS:  cpu time    0.04: real time    0.04
    ORTHCH:  cpu time    0.01: real time    0.01
       DOS:  cpu time    0.00: real time    0.00
    CHARGE:  cpu time    0.02: real time    0.02
    MIXING:  cpu time    0.00: real time    0.00
    --------------------------------------------
      LOOP:  cpu time    0.13: real time    0.13

 eigenvalue-minimisations  :   104
 total energy-change (2. order) :-0.1836527E-03  (-0.2399122E-04)
 number of electron      31.9999999 magnetization 
 augmentation part       -1.7273430 magnetization 

 Broyden mixing:
  rms(total) = 0.45325E-03    rms(broyden)= 0.45281E-03
  rms(prec ) = 0.90034E-03
  weight for this iteration     100.00

 eigenvalues of (default mixing * dielectric matrix)
  average eigenvalue GAMMA=   2.0370
  3.0923  2.6276  2.1666  0.9772  1.3211

 Free energy of the ion-electron system (eV)
  ---------------------------------------------------
  alpha Z        PSCENC =        12.68944982
  Ewald energy   TEWEN  =      -907.56621341
  -1/2 Hartree   DENC   =       -70.84782427
  -exchange  EXHF       =         0.00000000
  -V(xc)+E(xc)   XCENC  =       -72.90952780
  PAW double counting   =       307.80409035     -166.64795851
  entropy T*S    EENTRO =         0.00000000
  eigenvalues    EBANDS =        37.87960615
  atomic energy  EATOM  =       826.37398168
  ---------------------------------------------------
  free energy    TOTEN  =       -33.22439599 eV

  energy without entropy =      -33.22439599  energy(sigma->0) =      -33.22439599


--------------------------------------------------------------------------------------------------------




 average (electrostatic) potential at core
  the test charge radii are     0.9892
  (the norm of the test charge is              1.0000)
       1 -83.2246       2 -83.2263       3 -83.2284       4 -83.2240       5 -83.2246
       6 -83.2244       7 -83.2249       8 -83.2278
 
 
 
 E-fermi :   6.0513     XC(G=0):  -9.1307     alpha+bet :-11.7379


 k-point   1 :       0.0000    0.0000    0.0000
  band No.  band energies     occupation 
      1      -5.9496      2.00000
      2      -1.8805      2.00000
      3      -1.8754      2.00000
      4      -1.8654      2.00000
      5      -1.8600      2.00000
      6      -1.8555      2.00000
      7      -1.8498      2.00000
      8       3.0437      2.00000
      9       3.0453      2.00000
     10       3.0513      2.00000
     11       3.0517      2.00000
     12       3.0572      2.00000
     13       3.0586      2.00000
     14       5.9065      2.00000
     15       5.9140      2.00000
     16       5.9478      2.00000
     17       6.5842      0.00000
     18       6.5860      0.00000
     19       6.5965      0.00000
     20       6.5985      0.00000
     21       6.6014      0.00000
     22       6.6104      0.00000
     23       8.3649      0.00000
     24       8.3852      0.00000
     25       8.3896      0.00000
     26       9.0562      0.00000
     27      13.6117      0.00000
     28      13.6118      0.00000
     29      13.8264      0.00000
     30      15.8213      0.00000
     31      15.8235      0.00000
     32      15.8271      0.00000
     33      15.8297      0.00000
     34      15.8330      0.00000
     35      15.8367      0.00000
     36      16.9366      0.00000
     37      16.9596      0.00000
     38      16.9647      0.00000
     39      16.9754      0.00000
     40      16.9775      0.00000
     41      16.9823      0.00000
     42      16.9907      0.00000
     43      16.9941      0.00000
     44      17.0001      0.00000
     45      18.7080      0.00000
     46      18.7169      0.00000
     47      18.7250      0.00000
     48      18.7308      0.00000


--------------------------------------------------------------------------------------------------------


 soft charge-density along one line, spin component           1
         0         1         2         3         4         5         6         7         8         9
 total charge-density along one line
 
 pseudopotential strength for first ion, spin component:           1
 18.597  -0.001   0.000   0.000   0.000   0.000   0.000   0.000
 -0.001   0.006   0.000   0.000   0.000   0.000   0.000   0.000
  0.000   0.000   4.224   0.000   0.000  -0.005   0.000   0.000
  0.000   0.000   0.000   4.224   0.000   0.000  -0.005   0.000
  0.000   0.000   0.000   0.000   4.224   0.000   0.000  -0.005
  0.000   0.000  -0.005   0.000   0.000   0.005   0.000   0.000
  0.000   0.000   0.000  -0.005   0.000   0.000   0.005   0.000
  0.000   0.000   0.000   0.000  -0.005   0.000   0.000   0.005
 total augmentation occupancy for first ion, spin component:           1
  1.320  -1.086  -0.001   0.001   0.003   0.001  -0.002  -0.003
 -1.086   1.011   0.000  -0.002  -0.001  -0.001   0.002   0.003
 -0.001   0.000   1.124   0.002   0.001  -0.801  -0.004  -0.002
  0.001  -0.002   0.002   1.121  -0.001  -0.004  -0.799   0.001
  0.003  -0.001   0.001  -0.001   1.123  -0.002   0.001  -0.801
  0.001  -0.001  -0.801  -0.004  -0.002   0.648   0.004   0.002
 -0.002   0.002  -0.004  -0.799   0.001   0.004   0.646  -0.001
 -0.003   0.003  -0.002   0.001  -0.801   0.002  -0.001   0.648


----------------------------------------- Iteration    1(  11)  ---------------------------------------


    POTLOK:  cpu time    0.02: real time    0.02
    SETDIJ:  cpu time    0.02: real time    0.02
    EDDIAG:  cpu time    0.02: real time    0.02
  RMM-DIIS:  cpu time    0.03: real time    0.03
    ORTHCH:  cpu time    0.01: real time    0.01
       DOS:  cpu time    0.00: real time    0.00
    CHARGE:  cpu time    0.02: real time    0.02
    MIXING:  cpu time    0.00: real time    0.00
    --------------------------------------------
      LOOP:  cpu time    0.12: real time    0.12

 eigenvalue-minimisations  :   117
 total energy-change (2. order) : 0.4388342E-05  (-0.3268929E-06)
 number of electron      31.9999999 magnetization 
 augmentation part       -1.7274403 magnetization 

 Broyden mixing:
  rms(total) = 0.15655E-03    rms(broyden)= 0.15649E-03
  rms(prec ) = 0.30590E-03
  weight for this iteration     100.00

 eigenvalues of (default mixing * dielectric matrix)
  average eigenvalue GAMMA=   1.9676
  3.2096  2.7039  2.1565  1.7831  0.9762  0.9762

 Free energy of the ion-electron system (eV)
  ---------------------------------------------------
  alpha Z        PSCENC =        12.68944982
  Ewald energy   TEWEN  =      -907.56621341
  -1/2 Hartree   DENC   =       -70.82852050
  -exchange  EXHF       =         0.00000000
  -V(xc)+E(xc)   XCENC  =       -72.91086254
  PAW double counting   =       307.73496667     -166.57615245
  entropy T*S    EENTRO =         0.00000000
  eigenvalues    EBANDS =        37.85895912
  atomic energy  EATOM  =       826.37398168
  ---------------------------------------------------
  free energy    TOTEN  =       -33.22439160 eV

  energy without entropy =      -33.22439160  energy(sigma->0) =      -33.22439160


--------------------------------------------------------------------------------------------------------




 average (electrostatic) potential at core
  the test charge radii are     0.9892
  (the norm of the test charge is              1.0000)
       1 -83.2265       2 -83.2286       3 -83.2311       4 -83.2258       5 -83.2265
       6 -83.2262       7 -83.2269       8 -83.2304
 
 
 
 E-fermi :   6.0512     XC(G=0):  -9.1314     alpha+bet :-11.7379


 k-point   1 :       0.0000    0.0000    0.0000
  band No.  band energies     occupation 
      1      -5.9502      2.00000
      2      -1.8813      2.00000
      3      -1.8761      2.00000
      4      -1.8659      2.00000
      5      -1.8607      2.00000
      6      -1.8561      2.00000
      7      -1.8504      2.00000
      8       3.0430      2.00000
      9       3.0446      2.00000
     10       3.0508      2.00000
     11       3.0511      2.00000
     12       3.0566      2.00000
     13       3.0581      2.00000
     14       5.9057      2.00000
     15       5.9132      2.00000
     16       5.9470      2.00000
     17       6.5836      0.00000
     18       6.5853      0.00000
     19       6.5958      0.00000
     20       6.5978      0.00000
     21       6.6008      0.00000
     22       6.6097      0.00000
     23       8.3644      0.00000
     24       8.3847      0.00000
     25       8.3892      0.00000
     26       9.0553      0.00000
     27      13.6114      0.00000
     28      13.6115      0.00000
     29      13.8249      0.00000
     30      15.8206      0.00000
     31      15.8229      0.00000
     32      15.8265      0.00000
     33      15.8289      0.00000
     34      15.8323      0.00000
     35      15.8360      0.00000
     36      16.9361      0.00000
     37      16.9592      0.00000
     38      16.9643      0.00000
     39      16.9748      0.00000
     40      16.9768      0.00000
     41      16.9816      0.00000
     42      16.9901      0.00000
     43      16.9935      0.00000
     44      16.9995      0.00000
     45      18.7092      0.00000
     46      18.7170      0.00000
     47      18.7245      0.00000
     48      18.7313      0.00000


--------------------------------------------------------------------------------------------------------


 soft charge-density along one line, spin component           1
         0         1         2         3         4         5         6         7         8         9
 total charge-density along one line
 
 pseudopotential strength for first ion, spin component:           1
 18.597  -0.001   0.000   0.000   0.000   0.000   0.000   0.000
 -0.001   0.006   0.000   0.000   0.000   0.000   0.000   0.000
  0.000   0.000   4.224   0.000   0.000  -0.005   0.000   0.000
  0.000   0.000   0.000   4.224   0.000   0.000  -0.005   0.000
  0.000   0.000   0.000   0.000   4.224   0.000   0.000  -0.005
  0.000   0.000  -0.005   0.000   0.000   0.005   0.000   0.000
  0.000   0.000   0.000  -0.005   0.000   0.000   0.005   0.000
  0.000   0.000   0.000   0.000  -0.005   0.000   0.000   0.005
 total augmentation occupancy for first ion, spin component:           1
  1.320  -1.085  -0.001   0.001   0.003   0.001  -0.002  -0.003
 -1.085   1.010   0.000  -0.002  -0.001  -0.001   0.002   0.003
 -0.001   0.000   1.124   0.002   0.001  -0.801  -0.003  -0.002
  0.001  -0.002   0.002   1.121  -0.001  -0.004  -0.799   0.001
  0.003  -0.001   0.001  -0.001   1.123  -0.002   0.001  -0.801
  0.001  -0.001  -0.801  -0.004  -0.002   0.648   0.004   0.002
 -0.002   0.002  -0.003  -0.799   0.001   0.004   0.646  -0.001
 -0.003   0.003  -0.002   0.001  -0.801   0.002  -0.001   0.648


----------------------------------------- Iteration    1(  12)  ---------------------------------------


    POTLOK:  cpu time    0.02: real time    0.02
    SETDIJ:  cpu time    0.02: real time    0.02
    EDDIAG:  cpu time    0.02: real time    0.02
  RMM-DIIS:  cpu time    0.04: real time    0.04
    ORTHCH:  cpu time    0.00: real time    0.01
       DOS:  cpu time    0.00: real time    0.00
    CHARGE:  cpu time    0.02: real time    0.02
    MIXING:  cpu time    0.00: real time    0.00
    --------------------------------------------
      LOOP:  cpu time    0.14: real time    0.14

 eigenvalue-minimisations  :   125
 total energy-change (2. order) :-0.6146140E-06  (-0.5566819E-07)
 number of electron      31.9999999 magnetization 
 augmentation part       -1.7274289 magnetization 

 Broyden mixing:
  rms(total) = 0.60836E-04    rms(broyden)= 0.60803E-04
  rms(prec ) = 0.88360E-04
  weight for this iteration     100.00

 eigenvalues of (default mixing * dielectric matrix)
  average eigenvalue GAMMA=   1.9964
  3.2083  2.7300  2.4469  1.9992  1.6342  0.9966  0.9598

 Free energy of the ion-electron system (eV)
  ---------------------------------------------------
  alpha Z        PSCENC =        12.68944982
  Ewald energy   TEWEN  =      -907.56621341
  -1/2 Hartree   DENC   =       -70.83280020
  -exchange  EXHF       =         0.00000000
  -V(xc)+E(xc)   XCENC  =       -72.91080455
  PAW double counting   =       307.74185673     -166.58321698
  entropy T*S    EENTRO =         0.00000000
  eigenvalues    EBANDS =        37.86335470
  atomic energy  EATOM  =       826.37398168
  ---------------------------------------------------
  free energy    TOTEN  =       -33.22439222 eV

  energy without entropy =      -33.22439222  energy(sigma->0) =      -33.22439222


--------------------------------------------------------------------------------------------------------




 average (electrostatic) potential at core
  the test charge radii are     0.9892
  (the norm of the test charge is              1.0000)
       1 -83.2260       2 -83.2282       3 -83.2308       4 -83.2252       5 -83.2259
       6 -83.2257       7 -83.2263       8 -83.2300
 
 
 
 E-fermi :   6.0522     XC(G=0):  -9.1311     alpha+bet :-11.7379


 k-point   1 :       0.0000    0.0000    0.0000
  band No.  band energies     occupation 
      1      -5.9500      2.00000
      2      -1.8812      2.00000
      3      -1.8760      2.00000
      4      -1.8657      2.00000
      5      -1.8606      2.00000
      6      -1.8559      2.00000
      7      -1.8502      2.00000
      8       3.0431      2.00000
      9       3.0447      2.00000
     10       3.0509      2.00000
     11       3.0512      2.00000
     12       3.0568      2.00000
[...]
    MIXING:  cpu time    0.00: real time    0.00
    --------------------------------------------
      LOOP:  cpu time    0.15: real time    0.16

 Broyden mixing:
  rms(total) = 0.68507E-02    rms(broyden)= 0.68504E-02
  rms(prec ) = 0.11740E-01
  weight for this iteration     100.00

 eigenvalues of (default mixing * dielectric matrix)
  average eigenvalue GAMMA=   2.0743
  3.0289  2.4873  1.1263  1.6548

 Free energy of the ion-electron system (eV)
  ---------------------------------------------------
  -1/2 Hartree   DENC   =        -4.61469631
  -V(xc)+E(xc)   XCENC  =         0.94987047
  PAW double counting   =         3.10047035       -3.14983433
  entropy T*S    EENTRO =         0.00000000
  eigenvalues    EBANDS =       -24.52879789
  ---------------------------------------------------
  free energy    TOTEN  =       -28.24298771 eV

  energy without entropy =      -28.24298771


----------------------------------------- Iteration    3(   7)  ---------------------------------------


   POT+DIJ:  cpu time    0.07: real time    0.08
    HAMIL1:  cpu time    0.00: real time    0.01
    LRDIAG:  cpu time    0.01: real time    0.01
    LRDIIS:  cpu time    0.02: real time    0.02
    LRDIAG:  cpu time    0.01: real time    0.01
    MIXING:  cpu time    0.00: real time    0.00
    --------------------------------------------
      LOOP:  cpu time    0.15: real time    0.15

 Broyden mixing:
  rms(total) = 0.54764E-03    rms(broyden)= 0.54670E-03
  rms(prec ) = 0.10300E-02
  weight for this iteration     100.00

 eigenvalues of (default mixing * dielectric matrix)
  average eigenvalue GAMMA=   1.9466
  3.0868  2.4157  1.1160  1.6692  1.4453

 Free energy of the ion-electron system (eV)
  ---------------------------------------------------
  -1/2 Hartree   DENC   =        -4.62562070
  -V(xc)+E(xc)   XCENC  =         0.95721231
  PAW double counting   =         3.06458977       -3.11341550
  entropy T*S    EENTRO =         0.00000000
  eigenvalues    EBANDS =       -24.56394189
  ---------------------------------------------------
  free energy    TOTEN  =       -28.28117601 eV

  energy without entropy =      -28.28117601


----------------------------------------- Iteration    3(   8)  ---------------------------------------


   POT+DIJ:  cpu time    0.07: real time    0.07
    HAMIL1:  cpu time    0.00: real time    0.00
    LRDIAG:  cpu time    0.01: real time    0.01
    LRDIIS:  cpu time    0.02: real time    0.02
    LRDIAG:  cpu time    0.01: real time    0.01
    MIXING:  cpu time    0.00: real time    0.00
    --------------------------------------------
      LOOP:  cpu time    0.15: real time    0.15

 Broyden mixing:
  rms(total) = 0.27591E-03    rms(broyden)= 0.27583E-03
  rms(prec ) = 0.40554E-03
  weight for this iteration     100.00

 eigenvalues of (default mixing * dielectric matrix)
  average eigenvalue GAMMA=   1.9223
  3.0851  2.4931  2.0410  1.6685  1.0993  1.1467

 Free energy of the ion-electron system (eV)
  ---------------------------------------------------
  -1/2 Hartree   DENC   =        -4.62922237
  -V(xc)+E(xc)   XCENC  =         0.95815649
  PAW double counting   =         3.06857267       -3.11746518
  entropy T*S    EENTRO =         0.00000000
  eigenvalues    EBANDS =       -24.56497216
  ---------------------------------------------------
  free energy    TOTEN  =       -28.28493055 eV

  energy without entropy =      -28.28493055


----------------------------------------- Iteration    3(   9)  ---------------------------------------


   POT+DIJ:  cpu time    0.07: real time    0.07
    HAMIL1:  cpu time    0.00: real time    0.00
    LRDIAG:  cpu time    0.01: real time    0.01
    LRDIIS:  cpu time    0.02: real time    0.02
    LRDIAG:  cpu time    0.01: real time    0.01
    MIXING:  cpu time    0.00: real time    0.00
    --------------------------------------------
      LOOP:  cpu time    0.15: real time    0.15

 Broyden mixing:
  rms(total) = 0.10241E-03    rms(broyden)= 0.10239E-03
  rms(prec ) = 0.15525E-03
  weight for this iteration     100.00

 eigenvalues of (default mixing * dielectric matrix)
  average eigenvalue GAMMA=   1.8921
  3.1756  2.7354  2.3973  1.6746  1.2710  1.1021  0.8892

 Free energy of the ion-electron system (eV)
  ---------------------------------------------------
  -1/2 Hartree   DENC   =        -4.62887792
  -V(xc)+E(xc)   XCENC  =         0.95808747
  PAW double counting   =         3.07067332       -3.11960211
  entropy T*S    EENTRO =         0.00000000
  eigenvalues    EBANDS =       -24.56523315
  ---------------------------------------------------
  free energy    TOTEN  =       -28.28495239 eV

  energy without entropy =      -28.28495239


----------------------------------------- Iteration    3(  10)  ---------------------------------------


   POT+DIJ:  cpu time    0.07: real time    0.07
    HAMIL1:  cpu time    0.00: real time    0.00
    LRDIAG:  cpu time    0.01: real time    0.01
    LRDIIS:  cpu time    0.02: real time    0.02
    LRDIAG:  cpu time    0.01: real time    0.01
    MIXING:  cpu time    0.00: real time    0.00
    --------------------------------------------
      LOOP:  cpu time    0.15: real time    0.15

 Broyden mixing:
  rms(total) = 0.14001E-04    rms(broyden)= 0.13988E-04
  rms(prec ) = 0.23004E-04
  weight for this iteration     100.00

 eigenvalues of (default mixing * dielectric matrix)
  average eigenvalue GAMMA=   1.8385
  3.1963  2.7658  2.4532  1.6692  1.4056  0.9505  1.1585  1.1092

 Free energy of the ion-electron system (eV)
  ---------------------------------------------------
  -1/2 Hartree   DENC   =        -4.62897369
  -V(xc)+E(xc)   XCENC  =         0.95813138
  PAW double counting   =         3.07181928       -3.12076798
  entropy T*S    EENTRO =         0.00000000
  eigenvalues    EBANDS =       -24.56548271
  ---------------------------------------------------
  free energy    TOTEN  =       -28.28527374 eV

  energy without entropy =      -28.28527374


----------------------------------------- Iteration    3(  11)  ---------------------------------------


   POT+DIJ:  cpu time    0.07: real time    0.07
    HAMIL1:  cpu time    0.00: real time    0.01
    LRDIAG:  cpu time    0.01: real time    0.01
    LRDIIS:  cpu time    0.02: real time    0.02
    LRDIAG:  cpu time    0.01: real time    0.01
    MIXING:  cpu time    0.00: real time    0.00
    --------------------------------------------
      LOOP:  cpu time    0.15: real time    0.15

 Broyden mixing:
  rms(total) = 0.40145E-05    rms(broyden)= 0.40125E-05
  rms(prec ) = 0.60446E-05
  weight for this iteration     100.00

 eigenvalues of (default mixing * dielectric matrix)
  average eigenvalue GAMMA=   1.8473
  3.1992  2.7886  2.4316  2.0595  1.6699  1.3536  0.9618  1.0996  1.0623

 Free energy of the ion-electron system (eV)
  ---------------------------------------------------
  -1/2 Hartree   DENC   =        -4.62898378
  -V(xc)+E(xc)   XCENC  =         0.95812886
  PAW double counting   =         3.07188969       -3.12083956
  entropy T*S    EENTRO =         0.00000000
  eigenvalues    EBANDS =       -24.56546240
  ---------------------------------------------------
  free energy    TOTEN  =       -28.28526720 eV

  energy without entropy =      -28.28526720


----------------------------------------- Iteration    3(  12)  ---------------------------------------


   POT+DIJ:  cpu time    0.07: real time    0.07
    HAMIL1:  cpu time    0.00: real time    0.00
    LRDIAG:  cpu time    0.01: real time    0.01
    LRDIIS:  cpu time    0.03: real time    0.03
    LRDIAG:  cpu time    0.01: real time    0.01
    MIXING:  cpu time    0.00: real time    0.00
    --------------------------------------------
      LOOP:  cpu time    0.15: real time    0.16

 Broyden mixing:
  rms(total) = 0.14190E-05    rms(broyden)= 0.14186E-05
  rms(prec ) = 0.19781E-05
  weight for this iteration     100.00

 eigenvalues of (default mixing * dielectric matrix)
  average eigenvalue GAMMA=   1.8422
  3.2034  2.7959  2.4344  2.4344  1.6711  1.3821  1.3821  1.0058  1.0058  1.1066

 Free energy of the ion-electron system (eV)
  ---------------------------------------------------
  -1/2 Hartree   DENC   =        -4.62898412
  -V(xc)+E(xc)   XCENC  =         0.95812881
  PAW double counting   =         3.07182388       -3.12077266
  entropy T*S    EENTRO =         0.00000000
  eigenvalues    EBANDS =       -24.56546466
  ---------------------------------------------------
  free energy    TOTEN  =       -28.28526874 eV

  energy without entropy =      -28.28526874


----------------------------------------- Iteration    3(  13)  ---------------------------------------


   POT+DIJ:  cpu time    0.07: real time    0.07
    HAMIL1:  cpu time    0.00: real time    0.00
    LRDIAG:  cpu time    0.01: real time    0.01
    LRDIIS:  cpu time    0.02: real time    0.02
    LRDIAG:  cpu time    0.01: real time    0.01
    MIXING:  cpu time    0.00: real time    0.00
    --------------------------------------------
      LOOP:  cpu time    0.15: real time    0.15

 Broyden mixing:
  rms(total) = 0.35781E-06    rms(broyden)= 0.35773E-06
  rms(prec ) = 0.57592E-06
  weight for this iteration     100.00

 eigenvalues of (default mixing * dielectric matrix)
  average eigenvalue GAMMA=   1.8130
  3.2083  2.8303  2.4335  2.6012  1.6806  1.6371  0.9953  0.9953  1.1150  1.2231
  1.2231

 Free energy of the ion-electron system (eV)
  ---------------------------------------------------
  -1/2 Hartree   DENC   =        -4.62898491
  -V(xc)+E(xc)   XCENC  =         0.95812882
  PAW double counting   =         3.07179410       -3.12074234
  entropy T*S    EENTRO =         0.00000000
  eigenvalues    EBANDS =       -24.56546452
  ---------------------------------------------------
  free energy    TOTEN  =       -28.28526884 eV

  energy without entropy =      -28.28526884


------------------------ aborting loop because EDIFF is reached ----------------------------------------


 change of polarisation eV/A/(eV/A) component  3 :     0.254    -0.399    50.531
 dielectric tensor                  component  3 :     0.281    -0.441    56.868


--------------------------------------------------------------------------------------------------------


    FORLOC:  cpu time    0.00: real time    0.00
    FORNL :  cpu time    0.08: real time    0.08
    STRESS:  cpu time    0.26: real time    0.26
    FORCOR:  cpu time    0.02: real time    0.02
    FORLOC:  cpu time    0.00: real time    0.00
    FORNL :  cpu time    0.08: real time    0.08
    STRESS:  cpu time    0.26: real time    0.27
    FORCOR:  cpu time    0.02: real time    0.02
    FORNLD:  cpu time    0.01: real time    0.01

 PIEZOELECTRIC TENSOR FIELD DIRECTION 3  (e Angst)
 -----------------------------------------------------------------------------
    -0.00261 -0.00293  0.00372           (  0.00001  0.00001  0.00000)
    -0.00293  0.00982 -0.00058           (  0.00001  0.00000  0.00000)
     0.00372 -0.00058 -0.00675           (  0.00000  0.00000  0.00001)

 PIEZOELECTRIC TENSOR FIELD DIRECTION 3  (C/m^2)
 -----------------------------------------------------------------------------
    -0.00026 -0.00029  0.00036
    -0.00029  0.00096 -0.00006
     0.00036 -0.00006 -0.00066


      POSITION         DIRECTION 3           BORN EFFECTIVE CHARGE    (rigid.aug.   ionic)
 -----------------------------------------------------------------------------------------
      0.00393      0.00002      0.00058    -0.04449  0.08281 -5.77960 (  0.21592  4.00000)
      1.36752      1.36808      1.36594     0.04397 -0.10387 -5.77398 (  0.21594  4.00000)
      2.73558      2.73344      5.46984     0.03580  0.01401 -5.69996 (  0.21596  4.00000)
      4.10094      4.10234      1.36419     0.02794  0.10358 -5.81553 (  0.21591  4.00000)
      2.73484      5.46669      2.73873     0.02216  0.01407 -5.82320 (  0.21592  4.00000)
      4.09919      1.37123      4.10231    -0.06126 -0.08408 -5.79622 (  0.21592  4.00000)
      0.00373      2.73481      2.73418    -0.04638 -0.06038 -5.80809 (  0.21592  4.00000)
      1.36731      4.10168      4.10233    -0.04075  0.13171 -5.71946 (  0.21595  4.00000)
 -----------------------------------------------------------------------------------------
    total drift (improves with k-points):  -0.06302  0.09786-46.21603




--------------------------------------------------------------------------------------------------------


  LATTYP: Found a simple cubic cell.
 ALAT       =     5.4700000000
  
  Lattice vectors:
  
 A1 = (   5.4700000000,   0.0000000000,   0.0000000000)
 A2 = (   0.0000000000,   5.4700000000,   0.0000000000)
 A3 = (   0.0000000000,   0.0000000000,   5.4700000000)


Analysis of symmetry for initial positions (statically):
=====================================================================
 Subroutine PRICEL returns:
 Original cell was already a primitive cell.
 

 Routine SETGRP: Setting up the symmetry group for a 
 simple cubic supercell.


 Subroutine GETGRP returns: Found  1 space group operations
 (whereof  1 operations were pure point group operations)
 out of a pool of 48 trial point group operations.


The static configuration has the point symmetry C_1 .


Analysis of symmetry for dynamics (positions and initial velocities):
=====================================================================
 Subroutine PRICEL returns:
 Original cell was already a primitive cell.
 

 Routine SETGRP: Setting up the symmetry group for a 
 simple cubic supercell.


 Subroutine GETGRP returns: Found  1 space group operations
 (whereof  1 operations were pure point group operations)
 out of a pool of 48 trial point group operations.


The dynamic configuration has the point symmetry C_1 .


 MACROSCOPIC STATIC DIELECTRIC TENSOR (including local field effects in DFT)
 ------------------------------------------------------
          56.877214    -0.290766     0.281111
          -0.290766    56.863007    -0.441315
           0.281111    -0.441317    56.868222
 ------------------------------------------------------



--------------------------------------------------------------------------------------------------------


  LATTYP: Found a simple cubic cell.
 ALAT       =     5.4700000000
  
  Lattice vectors:
  
 A1 = (   5.4700000000,   0.0000000000,   0.0000000000)
 A2 = (   0.0000000000,   5.4700000000,   0.0000000000)
 A3 = (   0.0000000000,   0.0000000000,   5.4700000000)


Analysis of symmetry for initial positions (statically):
=====================================================================
 Subroutine PRICEL returns:
 Original cell was already a primitive cell.
 

 Routine SETGRP: Setting up the symmetry group for a 
 simple cubic supercell.


 Subroutine GETGRP returns: Found  1 space group operations
 (whereof  1 operations were pure point group operations)
 out of a pool of 48 trial point group operations.


The static configuration has the point symmetry C_1 .


Analysis of symmetry for dynamics (positions and initial velocities):
=====================================================================
 Subroutine PRICEL returns:
 Original cell was already a primitive cell.
 

 Routine SETGRP: Setting up the symmetry group for a 
 simple cubic supercell.


 Subroutine GETGRP returns: Found  1 space group operations
 (whereof  1 operations were pure point group operations)
 out of a pool of 48 trial point group operations.


The dynamic configuration has the point symmetry C_1 .
 
 KPOINTS: Automatic mesh                          

Automatic generation of k-mesh.
Space group operators:
 irot       det(A)        alpha          n_x          n_y          n_z        tau_x        tau_y        tau_z
    1     1.000000     0.000001     1.000000     0.000000     0.000000     0.000000     0.000000     0.000000
 
 Subroutine IBZKPT returns following result:
 ===========================================
 
 Found      1 irreducible k-points:
 
 Following reciprocal coordinates:
            Coordinates               Weight
  0.000000  0.000000  0.000000      1.000000
 
 Following cartesian coordinates:
            Coordinates               Weight
  0.000000  0.000000  0.000000      1.000000
 


--------------------------------------------------------------------------------------------------------




 MACROSCOPIC STATIC DIELECTRIC TENSOR (including local field effects in DFT)
 ------------------------------------------------------
          56.877214    -0.290766     0.281111
          -0.290766    56.863007    -0.441315
           0.281111    -0.441317    56.868222
 ------------------------------------------------------


 PIEZOELECTRIC TENSOR  for field in x, y, z        (e  Angst)
          XX          YY          ZZ          XY          YZ          ZX
  --------------------------------------------------------------------------------
  x     0.00526    -0.00269    -0.00080     0.00251     0.00401    -0.00660
  y     0.00796     0.00167    -0.00617     0.00307    -0.00381    -0.00043
  z    -0.00261     0.00982    -0.00675    -0.00293    -0.00058     0.00372

 PIEZOELECTRIC TENSOR  for field in x, y, z        (C/m^2)
          XX          YY          ZZ          XY          YZ          ZX
  --------------------------------------------------------------------------------
  x     0.00051    -0.00026    -0.00008     0.00025     0.00039    -0.00065
  y     0.00078     0.00016    -0.00060     0.00030    -0.00037    -0.00004
  z    -0.00026     0.00096    -0.00066    -0.00029    -0.00006     0.00036
 
 BORN EFFECTIVE CHARGES (in e, cummulative output)
 -------------------------------------------------
 ion    1
    1    -5.81752    -0.10894     0.04616
    2     0.08129    -5.81772    -0.06493
    3    -0.04449     0.08281    -5.77960
 ion    2
    1    -5.73456     0.06161    -0.04844
    2    -0.07540    -5.76301     0.07429
    3     0.04397    -0.10387    -5.77398
 ion    3
    1    -5.70276     0.12888    -0.04949
    2    -0.06116    -5.70337    -0.01863
    3     0.03580     0.01401    -5.69996
 ion    4
    1    -5.83378    -0.04939    -0.06960
    2     0.08579    -5.80441    -0.05762
    3     0.02794     0.10358    -5.81553
 ion    5
    1    -5.78388    -0.07165    -0.06391
    2     0.09559    -5.81845     0.04629
    3     0.02216     0.01407    -5.82320
 ion    6
    1    -5.83748     0.02586     0.02858
    2     0.03540    -5.80724     0.07789
    3    -0.06126    -0.08408    -5.79622
 ion    7
    1    -5.80427     0.08113     0.03888
    2    -0.08273    -5.76981     0.08708
    3    -0.04638    -0.06038    -5.80809
 ion    8
    1    -5.70335    -0.00324     0.05510
    2    -0.01434    -5.72912    -0.04670
    3    -0.04075     0.13171    -5.71946


--------------------------------------------------------------------------------------------------------


     LOOP+:  cpu time   19.42: real time   19.83
    4ORBIT:  cpu time    0.00: real time    0.00

 total amount of memory used by VASP on root node    32224. kBytes
========================================================================

   base      :      30000. kBytes
   nonl-proj :        202. kBytes
   fftplans  :        782. kBytes
   grid      :       1198. kBytes
   one-center:         24. kBytes
   wavefun   :         18. kBytes
 
  
  
 General timing and accounting informations for this job:
 ========================================================
  
                  Total CPU time used (sec):       20.427
                            User time (sec):       16.297
                          System time (sec):        4.130
                         Elapsed time (sec):       22.264
  
                   Maximum memory used (kb):       74148.
                   Average memory used (kb):           0.
  
                          Minor page faults:       209074
                          Major page faults:            0
                 Voluntary context switches:         1510
