 vasp.5.3.3 18Dez12 (build Jan  9 2014 12:00:49) complex                        
  
 executed on             LinuxIFC date 2014.01.29  10:06:11
 running on   48 total cores
 distrk:  each k-point on   48 cores,    1 groups
 distr:  one band on NCORES_PER_BAND=   1 cores,   48 groups


--------------------------------------------------------------------------------------------------------


 INCAR:
 POTCAR:    PAW Si                                

 ----------------------------------------------------------------------------- 
|                                                                             |
|           W    W    AA    RRRRR   N    N  II  N    N   GGGG   !!!           |
|           W    W   A  A   R    R  NN   N  II  NN   N  G    G  !!!           |
|           W    W  A    A  R    R  N N  N  II  N N  N  G       !!!           |
|           W WW W  AAAAAA  RRRRR   N  N N  II  N  N N  G  GGG   !            |
|           WW  WW  A    A  R   R   N   NN  II  N   NN  G    G                |
|           W    W  A    A  R    R  N    N  II  N    N   GGGG   !!!           |
|                                                                             |
|      For optimal performance we recommend that you set                      |
|        NPAR = 4 - approx SQRT( number of cores)                             |
|      (number of cores/NPAR must be integer)                                 |
|      This setting will greatly improve the performance of VASP for DFT.     |
|      The default NPAR=number of cores might be grossly inefficient          |
|      on modern multi-core architectures or massively parallel machines.     |
|      Do your own testing.                                                   |
|      Unfortunately you need to use the default for hybrid, GW and RPA       |
|      calculations.                                                          |
|                                                                             |
 ----------------------------------------------------------------------------- 

 POTCAR:    PAW Si                                
   VRHFIN =Si: s2p2                                                             
   LEXCH  = 91                                                                  
   EATOM  =   103.3076 eV,    7.5929 Ry                                         
                                                                                
   TITEL  = PAW Si                                                              
   LULTRA =        F    use ultrasoft PP ?                                      
   IUNSCR =        1    unscreen: 0-lin 1-nonlin 2-no                           
   RPACOR =    1.500    partial core radius                                     
   POMASS =   28.085; ZVAL   =    4.000    mass and valenz                      
   RCORE  =    1.900    outmost cutoff radius                                   
   RWIGS  =    2.480; RWIGS  =    1.312    wigner-seitz radius (au A)           
   ENMAX  =  245.435; ENMIN  =  184.076 eV                                      
   ICORE  =        2    local potential                                         
   LCOR   =        T    correct aug charges                                     
   LPAW   =        T    paw PP                                                  
   EAUG   =  322.069                                                            
   DEXC   =    -.001                                                            
   RMAX   =    2.943    core radius for proj-oper                               
   RAUG   =    1.300    factor for augmentation sphere                          
   RDEP   =    1.993    core radius for depl-charge                             
   QCUT   =   -4.247; QGAM   =    8.494    optimization parameters              
                                                                                
   Description                                                                  
     l     E      TYP  RCUT    TYP  RCUT                                        
     0   .000     23  1.900                                                     
     0   .000     23  1.900                                                     
     1   .000     23  1.900                                                     
     1   .000     23  1.900                                                     
     2   .000      7  1.900                                                     
  local pseudopotential read in
  partial core-charges read in
  atomic valenz-charges read in
  non local Contribution for L=           0  read in
    real space projection operators read in
  non local Contribution for L=           0  read in
    real space projection operators read in
  non local Contribution for L=           1  read in
    real space projection operators read in
  non local Contribution for L=           1  read in
    real space projection operators read in
    PAW grid and wavefunctions read in
 
   number of l-projection  operators is LMAX  =           4
   number of lm-projection operators is LMMAX =           8
 
  PAW Si                                :
 energy of atom  1       EATOM= -103.3076
 kinetic energy error for atom=    0.0109 (will be added to EATOM!!)
 
 
 POSCAR: OUTCAR.0015.-1.out 1.0e-02              
  positions in cartesian coordinates
  No initial velocities read in
 exchange correlation table for  LEXCH =        7
   RHO(1)=    0.500       N(1)  =     2000
   RHO(2)=  100.500       N(2)  =     4000

 VTST: version 3.0c, (01/09/14)

 CHAIN: initializing optimizer
 
 OPT: Using VASP Dynamics algorithm
 CHAIN: Read ICHAIN            0
 
 POSCAR: OUTCAR.0015.-1.out 1.0e-02              
  positions in cartesian coordinates
  No initial velocities read in
 


--------------------------------------------------------------------------------------------------------


 ion  position               nearest neighbor table
   1  1.000  0.001  1.000-   6 2.37   8 2.37   2 2.37   4 2.37
   2  0.251  0.250  0.250-   5 2.36   3 2.37   1 2.37   7 2.37
   3  0.500  0.500  1.000-   8 2.37   2 2.37   4 2.37   6 2.37
   4  0.750  0.750  0.250-   3 2.37   7 2.37   5 2.37   1 2.37
   5  0.500  1.000  0.500-   2 2.36   6 2.37   8 2.37   4 2.37
   6  0.750  0.250  0.749-   7 2.37   5 2.37   1 2.37   3 2.37
   7  1.000  0.499  0.500-   6 2.37   8 2.37   2 2.37   4 2.37
   8  0.249  0.750  0.750-   1 2.37   3 2.37   7 2.37   5 2.37
 
  LATTYP: Found a simple cubic cell.
 ALAT       =     5.4700000000
  
  Lattice vectors:
  
 A1 = (   5.4700000000,   0.0000000000,   0.0000000000)
 A2 = (   0.0000000000,   5.4700000000,   0.0000000000)
 A3 = (   0.0000000000,   0.0000000000,   5.4700000000)


Analysis of symmetry for initial positions (statically):
=====================================================================
 Subroutine PRICEL returns:
 Original cell was already a primitive cell.
 

 Routine SETGRP: Setting up the symmetry group for a 
 simple cubic supercell.


 Subroutine GETGRP returns: Found  1 space group operations
 (whereof  1 operations were pure point group operations)
 out of a pool of 48 trial point group operations.


The static configuration has the point symmetry C_1 .


Analysis of symmetry for dynamics (positions and initial velocities):
=====================================================================
 Subroutine PRICEL returns:
 Original cell was already a primitive cell.
 

 Routine SETGRP: Setting up the symmetry group for a 
 simple cubic supercell.


 Subroutine GETGRP returns: Found  1 space group operations
 (whereof  1 operations were pure point group operations)
 out of a pool of 48 trial point group operations.


The dynamic configuration has the point symmetry C_1 .


 irot  :   1
 --------------------------------------------------------------------
 isymop:   1   0   0
           0   1   0
           0   0   1

 gtrans:     0.0000000     0.0000000     0.0000000

 ptrans:     0.0000000     0.0000000     0.0000000
 rotmap:
 (   1->   1)  (   2->   2)  (   3->   3)  (   4->   4)  (   5->   5) 
 (   6->   6)  (   7->   7)  (   8->   8) 
 
 
 KPOINTS: Automatic mesh                          

Automatic generation of k-mesh.
Space group operators:
 irot       det(A)        alpha          n_x          n_y          n_z        tau_x        tau_y        tau_z
    1     1.000000     0.000001     1.000000     0.000000     0.000000     0.000000     0.000000     0.000000
 
 Subroutine IBZKPT returns following result:
 ===========================================
 
 Found      1 irreducible k-points:
 
 Following reciprocal coordinates:
            Coordinates               Weight
  0.000000  0.000000  0.000000      1.000000
 
 Following cartesian coordinates:
            Coordinates               Weight
  0.000000  0.000000  0.000000      1.000000
 
 
 Subroutine IBZKPT_HF returns following result:
 ==============================================
 
 Found      1 k-points in 1st BZ
 the following      1 k-points will be used (e.g. in the exchange kernel)
 Following reciprocal coordinates:   # in IRBZ
  0.000000  0.000000  0.000000       1 t-inv F


--------------------------------------------------------------------------------------------------------




 Dimension of arrays:
   k-points           NKPTS =      1   k-points in BZ     NKDIM =      1   number of bands    NBANDS=     48
   number of dos      NEDOS =    301   number of ions     NIONS =      8
   non local maximal  LDIM  =      4   non local SUM 2l+1 LMDIM =      8
   total plane-waves  NPLWV =  21952
   max r-space proj   IRMAX =      1   max aug-charges    IRDMAX=  36071
   dimension x,y,z NGX =    28 NGY =   28 NGZ =   28
   dimension x,y,z NGXF=    56 NGYF=   56 NGZF=   56
   support grid    NGXF=   112 NGYF=  112 NGZF=  112
   ions per type =               8
 NGX,Y,Z   is equivalent  to a cutoff of   8.51,  8.51,  8.51 a.u.
 NGXF,Y,Z  is equivalent  to a cutoff of  17.02, 17.02, 17.02 a.u.


 I would recommend the setting:
   dimension x,y,z NGX =    19 NGY =   19 NGZ =   19
 SYSTEM =  NAPTHA04                                
 POSCAR =  OUTCAR.0015.-1.out 1.0e-02              

 Startparameter for this run:
   NWRITE =      3    write-flag & timer
   PREC   = normal    normal or accurate (medium, high low for compatibility)
   ISTART =      0    job   : 0-new  1-cont  2-samecut
   ICHARG =      2    charge: 1-file 2-atom 10-const
   ISPIN  =      1    spin polarized calculation?
   LNONCOLLINEAR =      F non collinear calculations
   LSORBIT =      F    spin-orbit coupling
   INIWAV =      1    electr: 0-lowe 1-rand  2-diag
   LASPH  =      F    aspherical Exc in radial PAW
   METAGGA=      F    non-selfconsistent MetaGGA calc.

 Electronic Relaxation 1
   ENCUT  =  200.0 eV  14.70 Ry    3.83 a.u.   6.31  6.31  6.31*2*pi/ulx,y,z
   ENINI  =  200.0     initial cutoff
   ENAUG  =  322.1 eV  augmentation charge cutoff
   NELM   =     60;   NELMIN=  2; NELMDL= -5     # of ELM steps 
   EDIFF  = 0.1E-07   stopping-criterion for ELM
   LREAL  =      F    real-space projection
   NLSPLINE    = F    spline interpolate recip. space projectors
   LCOMPAT=      F    compatible to vasp.4.4
   GGA_COMPAT  = T    GGA compatible to vasp.4.4-vasp.4.6
   LMAXPAW     = -100 max onsite density
   LMAXMIX     =    2 max onsite mixed and CHGCAR
   VOSKOWN=      0    Vosko Wilk Nusair interpolation
   ROPT   =    0.00000
 Ionic relaxation
   EDIFFG = 0.1E-06   stopping-criterion for IOM
   NSW    =      0    number of steps for IOM
   NBLOCK =      1;   KBLOCK =      1    inner block; outer block 
   IBRION =     -1    ionic relax: 0-MD 1-quasi-New 2-CG
   NFREE  =      0    steps in history (QN), initial steepest desc. (CG)
   ISIF   =      2    stress and relaxation
   IWAVPR =     10    prediction:  0-non 1-charg 2-wave 3-comb
   ISYM   =      2    0-nonsym 1-usesym 2-fastsym
   LCORR  =      T    Harris-Foulkes like correction to forces

   POTIM  = 0.5000    time-step for ionic-motion
   TEIN   =    0.0    initial temperature
   TEBEG  =    0.0;   TEEND  =   0.0 temperature during run
   SMASS  =  -3.00    Nose mass-parameter (am)
   estimated Nose-frequenzy (Omega)   =  0.10E-29 period in steps =****** mass=  -0.684E-27a.u.
   SCALEE = 1.0000    scale energy and forces
   NPACO  =    256;   APACO  = 16.0  distance and # of slots for P.C.
   PSTRESS=    0.0 pullay stress

  Mass of Ions in am
   POMASS =  28.09
  Ionic Valenz
   ZVAL   =   4.00
  Atomic Wigner-Seitz radii
   RWIGS  =  -1.00
  virtual crystal weights 
   VCA    =   1.00
   NELECT =      32.0000    total number of electrons
   NUPDOWN=      -1.0000    fix difference up-down

 DOS related values:
   EMIN   =  10.00;   EMAX   =-10.00  energy-range for DOS
   EFERMI =   0.00
   ISMEAR =     0;   SIGMA  =   0.02  broadening in eV -4-tet -1-fermi 0-gaus

 Electronic relaxation 2 (details)
   IALGO  =     68    algorithm
   LDIAG  =      T    sub-space diagonalisation (order eigenvalues)
   LSUBROT=      T    optimize rotation matrix (better conditioning)
   TURBO    =      0    0=normal 1=particle mesh
   IRESTART =      0    0=no restart 2=restart with 2 vectors
   NREBOOT  =      0    no. of reboots
   NMIN     =      0    reboot dimension
   EREF     =   0.00    reference energy to select bands
   IMIX   =      4    mixing-type and parameters
     AMIX     =   0.40;   BMIX     =  1.00
     AMIX_MAG =   1.60;   BMIX_MAG =  1.00
     AMIN     =   0.10
     WC   =   100.;   INIMIX=   1;  MIXPRE=   1;  MAXMIX= -45

 Intra band minimization:
   WEIMIN = 0.0000     energy-eigenvalue tresh-hold
   EBREAK =  0.52E-10  absolut break condition
   DEPER  =   0.30     relativ break condition  

   TIME   =   0.40     timestep for ELM

  volume/ion in A,a.u.               =      20.46       138.06
  Fermi-wavevector in a.u.,A,eV,Ry     =   0.950176  1.795573 12.283814  0.902835
  Thomas-Fermi vector in A             =   2.078528
 
 Write flags
   LWAVE  =      F    write WAVECAR
   LCHARG =      F    write CHGCAR
   LVTOT  =      F    write LOCPOT, total local potential
   LVHAR  =      F    write LOCPOT, Hartree potential only
   LELF   =      F    write electronic localiz. function (ELF)
   LORBIT =      0    0 simple, 1 ext, 2 COOP (PROOUT)


 Dipole corrections
   LMONO  =      F    monopole corrections only (constant potential shift)
   LDIPOL =      F    correct potential (dipole corrections)
   IDIPOL =      0    1-x, 2-y, 3-z, 4-all directions 
   EPSILON=  1.0000000 bulk dielectric constant

 Exchange correlation treatment:
   GGA     =    --    GGA type
   LEXCH   =     7    internal setting for exchange type
   VOSKOWN=      0    Vosko Wilk Nusair interpolation
   LHFCALC =     F    Hartree Fock is set to
   LHFONE  =     F    Hartree Fock one center treatment
   AEXX    =    0.0000 exact exchange contribution

 Linear response parameters
   LEPSILON=     T    determine dielectric tensor
   LRPA    =     F    only Hartree local field effects (RPA)
   LNABLA  =     F    use nabla operator in PAW spheres
   LVEL    =     F    velocity operator in full k-point grid
   LINTERFAST=   F  fast interpolation
   KINTER  =     0    interpolate to denser k-point grid
   CSHIFT  =0.1000    complex shift for real part using Kramers Kronig
   OMEGAMAX=  -1.0    maximum frequency
   DEG_THRESHOLD= 0.2000000E-02 threshold for treating states as degnerate
   RTIME   =    0.100 relaxation time in fs

 Orbital magnetization related:
   ORBITALMAG=     F  switch on orbital magnetization
   LCHIMAG   =     F  perturbation theory with respect to B field
   DQ        =  0.001000  dq finite difference perturbation B field



--------------------------------------------------------------------------------------------------------


 Static calculation
 charge density and potential will be updated during run
 non-spin polarized calculation
 RMM-DIIS sequential band-by-band and
  variant of blocked Davidson during initial phase
 perform sub-space diagonalisation
    before iterative eigenvector-optimisation
 modified Broyden-mixing scheme, WC =      100.0
 initial mixing is a Kerker type mixing with AMIX =  0.4000 and BMIX =      1.0000
 Hartree-type preconditioning will be used
 using additional bands           32
 reciprocal scheme for non local part
 use partial core corrections
 calculate Harris-corrections to forces 
   (improved forces if not selfconsistent)
 use gradient corrections 
 use of overlap-Matrix (Vanderbilt PP)
 Gauss-broadening in eV      SIGMA  =   0.02


--------------------------------------------------------------------------------------------------------


  energy-cutoff  :      200.00
  volume of cell :      163.67
      direct lattice vectors                 reciprocal lattice vectors
     5.470000000  0.000000000  0.000000000     0.182815356  0.000000000  0.000000000
     0.000000000  5.470000000  0.000000000     0.000000000  0.182815356  0.000000000
     0.000000000  0.000000000  5.470000000     0.000000000  0.000000000  0.182815356

  length of vectors
     5.470000000  5.470000000  5.470000000     0.182815356  0.182815356  0.182815356


 
 k-points in units of 2pi/SCALE and weight: Automatic mesh                          
   0.00000000  0.00000000  0.00000000       1.000
 
 k-points in reciprocal lattice and weights: Automatic mesh                          
   0.00000000  0.00000000  0.00000000       1.000
 
 position of ions in fractional coordinates (direct lattice) 
   0.99980481  0.00064941  0.99957513
   0.25064941  0.24957513  0.25013317
   0.49957513  0.50013317  0.99973090
   0.75013317  0.74973090  0.24965000
   0.49973090  0.99965000  0.49997205
   0.74965000  0.24997205  0.74934760
   0.99997205  0.49934760  0.50002066
   0.24934760  0.75002066  0.75003213
 
 position of ions in cartesian coordinates  (Angst):
   5.46893233  0.00355227  5.46767594
   1.37105227  1.36517594  1.36822842
   2.73267594  2.73572842  5.46852800
   4.10322842  4.10102800  1.36558553
   2.73352800  5.46808553  2.73484712
   4.10058553  1.36734712  4.09893139
   5.46984712  2.73143139  2.73511303
   1.36393139  4.10261303  4.10267576
 


--------------------------------------------------------------------------------------------------------


 k-point  1 :   0.0000 0.0000 0.0000  plane waves:    1021

 maximum and minimum number of plane-waves per node :      1021     1021

 maximum number of plane-waves:      1021
 maximum index in each direction: 
   IXMAX=    6   IYMAX=    6   IZMAX=    6
   IXMIN=   -6   IYMIN=   -6   IZMIN=   -6

 NGX is ok and might be reduce to  26
 NGY is ok and might be reduce to  26
 NGZ is ok and might be reduce to  26

 serial   3D FFT for wavefunctions
 parallel 3D FFT for charge:
    minimum data exchange during FFTs selected (reduces bandwidth)


 total amount of memory used by VASP on root node    32224. kBytes
========================================================================

   base      :      30000. kBytes
   nonl-proj :        202. kBytes
   fftplans  :        782. kBytes
   grid      :       1198. kBytes
   one-center:         24. kBytes
   wavefun   :         18. kBytes
 
 Broyden mixing: mesh for mixing (old mesh)
   NGX = 13   NGY = 13   NGZ = 13
  (NGX  = 56   NGY  = 56   NGZ  = 56)
  gives a total of   2197 points

 initial charge density was supplied:
 charge density of overlapping atoms calculated
 number of electron      32.0000000 magnetization 
 keeping initial charge density in first step


--------------------------------------------------------------------------------------------------------


 Maximum index for augmentation-charges         1783 (set IRDMAX)


--------------------------------------------------------------------------------------------------------


 First call to EWALD:  gamma=   0.324
 Maximum number of real-space cells 3x 3x 3
 Maximum number of reciprocal cells 3x 3x 3

 FEWALD executed in parallel
    FEWALD:  cpu time    0.00: real time    0.00


----------------------------------------- Iteration    1(   1)  ---------------------------------------


    POTLOK:  cpu time    0.03: real time    0.03
    SETDIJ:  cpu time    0.02: real time    0.02
     EDDAV:  cpu time    0.40: real time    0.40
       DOS:  cpu time    0.00: real time    0.00
    --------------------------------------------
      LOOP:  cpu time    0.46: real time    0.47

 eigenvalue-minimisations  :    96
 total energy-change (2. order) :-0.1015316E+02  (-0.7956176E+03)
 number of electron      32.0000000 magnetization 
 augmentation part       32.0000000 magnetization 

 Free energy of the ion-electron system (eV)
  ---------------------------------------------------
  alpha Z        PSCENC =        12.68944982
  Ewald energy   TEWEN  =      -907.56842095
  -1/2 Hartree   DENC   =       -45.63559405
  -exchange  EXHF       =         0.00000000
  -V(xc)+E(xc)   XCENC  =       -76.79674597
  PAW double counting   =       265.93453375     -123.69690146
  entropy T*S    EENTRO =        -0.00015290
  eigenvalues    EBANDS =        38.54669502
  atomic energy  EATOM  =       826.37398168
  ---------------------------------------------------
  free energy    TOTEN  =       -10.15315507 eV

  energy without entropy =      -10.15300216  energy(sigma->0) =      -10.15307861


--------------------------------------------------------------------------------------------------------




 average (electrostatic) potential at core
  the test charge radii are     0.9892
  (the norm of the test charge is              1.0000)
       1 -84.3496       2 -84.3521       3 -84.3496       4 -84.3456       5 -84.3527
       6 -84.3532       7 -84.3506       8 -84.3515
 
 
 
 E-fermi :   6.6086     XC(G=0):  -9.5533     alpha+bet :-11.7379


 k-point   1 :       0.0000    0.0000    0.0000
  band No.  band energies     occupation 
      1      -6.5895      2.00000
      2      -2.4128      2.00000
      3      -2.2520      2.00000
      4      -2.1177      2.00000
      5      -2.0305      2.00000
      6      -1.8721      2.00000
      7      -1.6827      2.00000
      8       2.7416      2.00000
      9       2.8485      2.00000
     10       2.9936      2.00000
     11       3.1617      2.00000
     12       3.3437      2.00000
     13       4.0775      2.00000
     14       6.1368      2.00000
     15       6.3634      2.00000
     16       6.5639      1.99843
     17       6.6533      0.00157
     18       6.8034      0.00000
     19       6.9038      0.00000
     20       7.1777      0.00000
     21       7.3819      0.00000
     22       8.0444      0.00000
     23       8.9834      0.00000
     24       9.3759      0.00000
     25      10.4517      0.00000
     26      11.4484      0.00000
     27      13.5071      0.00000
     28      14.7731      0.00000
     29      16.5609      0.00000
     30      16.8958      0.00000
     31      17.3556      0.00000
     32      17.5913      0.00000
     33      17.9345      0.00000
     34      18.1295      0.00000
     35      18.4986      0.00000
     36      18.8769      0.00000
     37      19.3674      0.00000
     38      19.5095      0.00000
     39      19.8632      0.00000
     40      20.2541      0.00000
     41      21.1020      0.00000
     42      21.6866      0.00000
     43      22.1757      0.00000
     44      22.7626      0.00000
     45      23.8950      0.00000
     46      24.4054      0.00000
     47      24.8293      0.00000
     48      25.8350      0.00000


--------------------------------------------------------------------------------------------------------


 soft charge-density along one line, spin component           1
         0         1         2         3         4         5         6         7         8         9
 total charge-density along one line
 
 pseudopotential strength for first ion, spin component:           1
 18.662   0.000   0.000   0.000   0.000   0.000   0.000   0.000
  0.000   0.006   0.000   0.000   0.000   0.000   0.000   0.000
  0.000   0.000   4.216   0.000   0.000  -0.004   0.000   0.000
  0.000   0.000   0.000   4.216   0.000   0.000  -0.004   0.000
  0.000   0.000   0.000   0.000   4.216   0.000   0.000  -0.004
  0.000   0.000  -0.004   0.000   0.000   0.005   0.000   0.000
  0.000   0.000   0.000  -0.004   0.000   0.000   0.005   0.000
  0.000   0.000   0.000   0.000  -0.004   0.000   0.000   0.005
 total augmentation occupancy for first ion, spin component:           1
  2.000   0.000   0.000   0.000   0.000   0.000   0.000   0.000
  0.000   0.000   0.000   0.000   0.000   0.000   0.000   0.000
  0.000   0.000   0.667   0.000   0.000   0.000   0.000   0.000
  0.000   0.000   0.000   0.667   0.000   0.000   0.000   0.000
  0.000   0.000   0.000   0.000   0.667   0.000   0.000   0.000
  0.000   0.000   0.000   0.000   0.000   0.000   0.000   0.000
  0.000   0.000   0.000   0.000   0.000   0.000   0.000   0.000
  0.000   0.000   0.000   0.000   0.000   0.000   0.000   0.000


----------------------------------------- Iteration    1(   2)  ---------------------------------------


     EDDAV:  cpu time    0.97: real time    0.97
       DOS:  cpu time    0.00: real time    0.00
    --------------------------------------------
      LOOP:  cpu time    0.98: real time    0.98

 eigenvalue-minimisations  :   144
 total energy-change (2. order) :-0.2429764E+02  (-0.2429613E+02)
 number of electron      32.0000000 magnetization 
 augmentation part       32.0000000 magnetization 

 Free energy of the ion-electron system (eV)
  ---------------------------------------------------
  alpha Z        PSCENC =        12.68944982
  Ewald energy   TEWEN  =      -907.56842095
  -1/2 Hartree   DENC   =       -45.63559405
  -exchange  EXHF       =         0.00000000
  -V(xc)+E(xc)   XCENC  =       -76.79674597
  PAW double counting   =       265.93453375     -123.69690146
  entropy T*S    EENTRO =         0.00000000
  eigenvalues    EBANDS =        14.24889861
  atomic energy  EATOM  =       826.37398168
  ---------------------------------------------------
  free energy    TOTEN  =       -34.45079857 eV

  energy without entropy =      -34.45079857  energy(sigma->0) =      -34.45079857


--------------------------------------------------------------------------------------------------------




 average (electrostatic) potential at core
  the test charge radii are     0.9892
  (the norm of the test charge is              1.0000)
       1 -84.3496       2 -84.3521       3 -84.3496       4 -84.3456       5 -84.3527
       6 -84.3532       7 -84.3506       8 -84.3515
 
 
 
 E-fermi :   5.2520     XC(G=0):  -9.5533     alpha+bet :-11.7379


 k-point   1 :       0.0000    0.0000    0.0000
  band No.  band energies     occupation 
      1      -6.6371      2.00000
      2      -2.6392      2.00000
      3      -2.6365      2.00000
      4      -2.6295      2.00000
      5      -2.6257      2.00000
      6      -2.6254      2.00000
      7      -2.6185      2.00000
      8       2.3758      2.00000
      9       2.3774      2.00000
     10       2.3812      2.00000
     11       2.3831      2.00000
     12       2.3854      2.00000
     13       2.3932      2.00000
     14       5.0679      2.00000
     15       5.0814      2.00000
     16       5.0910      2.00000
     17       6.1481      0.00000
     18       6.1518      0.00000
     19       6.1549      0.00000
     20       6.1593      0.00000
     21       6.1608      0.00000
     22       6.1651      0.00000
     23       7.8519      0.00000
     24       7.8567      0.00000
     25       7.8629      0.00000
     26       8.1266      0.00000
     27      13.2006      0.00000
     28      13.2626      0.00000
     29      13.2697      0.00000
     30      15.1012      0.00000
     31      15.1322      0.00000
     32      15.1700      0.00000
     33      15.2509      0.00000
     34      15.3143      0.00000
     35      15.6393      0.00000
     36      16.3761      0.00000
     37      16.4238      0.00000
     38      16.4522      0.00000
     39      16.5419      0.00000
     40      16.7184      0.00000
     41      16.7487      0.00000
     42      16.7693      0.00000
     43      16.8664      0.00000
     44      17.2272      0.00000
     45      17.9124      0.00000
     46      17.9513      0.00000
     47      17.9898      0.00000
     48      18.0227      0.00000


--------------------------------------------------------------------------------------------------------


 soft charge-density along one line, spin component           1
         0         1         2         3         4         5         6         7         8         9
 total charge-density along one line
 
 pseudopotential strength for first ion, spin component:           1
 18.662   0.000   0.000   0.000   0.000   0.000   0.000   0.000
  0.000   0.006   0.000   0.000   0.000   0.000   0.000   0.000
  0.000   0.000   4.216   0.000   0.000  -0.004   0.000   0.000
  0.000   0.000   0.000   4.216   0.000   0.000  -0.004   0.000
  0.000   0.000   0.000   0.000   4.216   0.000   0.000  -0.004
  0.000   0.000  -0.004   0.000   0.000   0.005   0.000   0.000
  0.000   0.000   0.000  -0.004   0.000   0.000   0.005   0.000
  0.000   0.000   0.000   0.000  -0.004   0.000   0.000   0.005
 total augmentation occupancy for first ion, spin component:           1
  2.000   0.000   0.000   0.000   0.000   0.000   0.000   0.000
  0.000   0.000   0.000   0.000   0.000   0.000   0.000   0.000
  0.000   0.000   0.667   0.000   0.000   0.000   0.000   0.000
  0.000   0.000   0.000   0.667   0.000   0.000   0.000   0.000
  0.000   0.000   0.000   0.000   0.667   0.000   0.000   0.000
  0.000   0.000   0.000   0.000   0.000   0.000   0.000   0.000
  0.000   0.000   0.000   0.000   0.000   0.000   0.000   0.000
  0.000   0.000   0.000   0.000   0.000   0.000   0.000   0.000


----------------------------------------- Iteration    1(   3)  ---------------------------------------


     EDDAV:  cpu time    0.39: real time    0.39
       DOS:  cpu time    0.00: real time    0.00
    --------------------------------------------
      LOOP:  cpu time    0.39: real time    0.40

 eigenvalue-minimisations  :    96
 total energy-change (2. order) :-0.1671180E+00  (-0.1671180E+00)
 number of electron      32.0000000 magnetization 
 augmentation part       32.0000000 magnetization 

 Free energy of the ion-electron system (eV)
  ---------------------------------------------------
  alpha Z        PSCENC =        12.68944982
  Ewald energy   TEWEN  =      -907.56842095
  -1/2 Hartree   DENC   =       -45.63559405
  -exchange  EXHF       =         0.00000000
  -V(xc)+E(xc)   XCENC  =       -76.79674597
  PAW double counting   =       265.93453375     -123.69690146
  entropy T*S    EENTRO =         0.00000000
  eigenvalues    EBANDS =        14.08178066
  atomic energy  EATOM  =       826.37398168
  ---------------------------------------------------
  free energy    TOTEN  =       -34.61791652 eV

  energy without entropy =      -34.61791652  energy(sigma->0) =      -34.61791652


--------------------------------------------------------------------------------------------------------




 average (electrostatic) potential at core
  the test charge radii are     0.9892
  (the norm of the test charge is              1.0000)
       1 -84.3496       2 -84.3521       3 -84.3496       4 -84.3456       5 -84.3527
       6 -84.3532       7 -84.3506       8 -84.3515
 
 
 
 E-fermi :   5.2129     XC(G=0):  -9.5533     alpha+bet :-11.7379


 k-point   1 :       0.0000    0.0000    0.0000
  band No.  band energies     occupation 
      1      -6.6371      2.00000
      2      -2.6415      2.00000
      3      -2.6392      2.00000
      4      -2.6314      2.00000
      5      -2.6277      2.00000
      6      -2.6265      2.00000
      7      -2.6216      2.00000
      8       2.3722      2.00000
      9       2.3757      2.00000
     10       2.3770      2.00000
     11       2.3796      2.00000
     12       2.3804      2.00000
     13       2.3812      2.00000
     14       5.0610      2.00000
     15       5.0658      2.00000
     16       5.0731      2.00000
     17       6.1442      0.00000
     18       6.1499      0.00000
     19       6.1524      0.00000
     20       6.1563      0.00000
     21       6.1577      0.00000
     22       6.1590      0.00000
     23       7.8459      0.00000
     24       7.8500      0.00000
     25       7.8527      0.00000
     26       8.1178      0.00000
     27      13.1845      0.00000
     28      13.1867      0.00000
     29      13.2692      0.00000
     30      15.0841      0.00000
     31      15.0869      0.00000
     32      15.0937      0.00000
     33      15.1125      0.00000
     34      15.1286      0.00000
     35      15.1815      0.00000
     36      16.3136      0.00000
     37      16.3300      0.00000
     38      16.3433      0.00000
     39      16.3696      0.00000
     40      16.4266      0.00000
     41      16.4875      0.00000
     42      16.7134      0.00000
     43      16.7172      0.00000
     44      16.8139      0.00000
     45      17.8836      0.00000
     46      17.8905      0.00000
     47      17.9198      0.00000
     48      17.9416      0.00000


--------------------------------------------------------------------------------------------------------


 soft charge-density along one line, spin component           1
         0         1         2         3         4         5         6         7         8         9
 total charge-density along one line
 
 pseudopotential strength for first ion, spin component:           1
 18.662   0.000   0.000   0.000   0.000   0.000   0.000   0.000
  0.000   0.006   0.000   0.000   0.000   0.000   0.000   0.000
  0.000   0.000   4.216   0.000   0.000  -0.004   0.000   0.000
  0.000   0.000   0.000   4.216   0.000   0.000  -0.004   0.000
  0.000   0.000   0.000   0.000   4.216   0.000   0.000  -0.004
  0.000   0.000  -0.004   0.000   0.000   0.005   0.000   0.000
  0.000   0.000   0.000  -0.004   0.000   0.000   0.005   0.000
  0.000   0.000   0.000   0.000  -0.004   0.000   0.000   0.005
 total augmentation occupancy for first ion, spin component:           1
  2.000   0.000   0.000   0.000   0.000   0.000   0.000   0.000
  0.000   0.000   0.000   0.000   0.000   0.000   0.000   0.000
  0.000   0.000   0.667   0.000   0.000   0.000   0.000   0.000
  0.000   0.000   0.000   0.667   0.000   0.000   0.000   0.000
  0.000   0.000   0.000   0.000   0.667   0.000   0.000   0.000
  0.000   0.000   0.000   0.000   0.000   0.000   0.000   0.000
  0.000   0.000   0.000   0.000   0.000   0.000   0.000   0.000
  0.000   0.000   0.000   0.000   0.000   0.000   0.000   0.000


----------------------------------------- Iteration    1(   4)  ---------------------------------------


     EDDAV:  cpu time    1.99: real time    1.99
       DOS:  cpu time    0.00: real time    0.00
    --------------------------------------------
      LOOP:  cpu time    2.00: real time    2.00

 eigenvalue-minimisations  :   192
 total energy-change (2. order) :-0.3540669E-03  (-0.3540669E-03)
 number of electron      32.0000000 magnetization 
 augmentation part       32.0000000 magnetization 

 Free energy of the ion-electron system (eV)
  ---------------------------------------------------
  alpha Z        PSCENC =        12.68944982
  Ewald energy   TEWEN  =      -907.56842095
  -1/2 Hartree   DENC   =       -45.63559405
  -exchange  EXHF       =         0.00000000
  -V(xc)+E(xc)   XCENC  =       -76.79674597
  PAW double counting   =       265.93453375     -123.69690146
  entropy T*S    EENTRO =         0.00000000
  eigenvalues    EBANDS =        14.08142659
  atomic energy  EATOM  =       826.37398168
  ---------------------------------------------------
  free energy    TOTEN  =       -34.61827058 eV

  energy without entropy =      -34.61827058  energy(sigma->0) =      -34.61827058


--------------------------------------------------------------------------------------------------------




 average (electrostatic) potential at core
  the test charge radii are     0.9892
  (the norm of the test charge is              1.0000)
       1 -84.3496       2 -84.3521       3 -84.3496       4 -84.3456       5 -84.3527
       6 -84.3532       7 -84.3506       8 -84.3515
 
 
 
 E-fermi :   5.2005     XC(G=0):  -9.5533     alpha+bet :-11.7379


 k-point   1 :       0.0000    0.0000    0.0000
  band No.  band energies     occupation 
      1      -6.6371      2.00000
      2      -2.6415      2.00000
      3      -2.6392      2.00000
      4      -2.6315      2.00000
      5      -2.6277      2.00000
      6      -2.6265      2.00000
      7      -2.6216      2.00000
      8       2.3722      2.00000
      9       2.3757      2.00000
     10       2.3770      2.00000
     11       2.3796      2.00000
     12       2.3804      2.00000
     13       2.3812      2.00000
     14       5.0610      2.00000
     15       5.0657      2.00000
     16       5.0731      2.00000
     17       6.1442      0.00000
     18       6.1499      0.00000
     19       6.1524      0.00000
     20       6.1563      0.00000
     21       6.1576      0.00000
     22       6.1589      0.00000
     23       7.8459      0.00000
     24       7.8500      0.00000
     25       7.8526      0.00000
     26       8.1178      0.00000
     27      13.1837      0.00000
     28      13.1838      0.00000
     29      13.2692      0.00000
     30      15.0788      0.00000
     31      15.0819      0.00000
     32      15.0831      0.00000
     33      15.0860      0.00000
     34      15.0864      0.00000
     35      15.0927      0.00000
     36      16.2993      0.00000
     37      16.3050      0.00000
     38      16.3080      0.00000
     39      16.3144      0.00000
     40      16.3161      0.00000
     41      16.3202      0.00000
     42      16.7004      0.00000
     43      16.7048      0.00000
     44      16.7079      0.00000
     45      17.8747      0.00000
     46      17.8802      0.00000
     47      17.8849      0.00000
     48      17.8925      0.00000


--------------------------------------------------------------------------------------------------------


 soft charge-density along one line, spin component           1
         0         1         2         3         4         5         6         7         8         9
 total charge-density along one line
 
 pseudopotential strength for first ion, spin component:           1
 18.662   0.000   0.000   0.000   0.000   0.000   0.000   0.000
  0.000   0.006   0.000   0.000   0.000   0.000   0.000   0.000
  0.000   0.000   4.216   0.000   0.000  -0.004   0.000   0.000
  0.000   0.000   0.000   4.216   0.000   0.000  -0.004   0.000
  0.000   0.000   0.000   0.000   4.216   0.000   0.000  -0.004
  0.000   0.000  -0.004   0.000   0.000   0.005   0.000   0.000
  0.000   0.000   0.000  -0.004   0.000   0.000   0.005   0.000
  0.000   0.000   0.000   0.000  -0.004   0.000   0.000   0.005
 total augmentation occupancy for first ion, spin component:           1
  2.000   0.000   0.000   0.000   0.000   0.000   0.000   0.000
  0.000   0.000   0.000   0.000   0.000   0.000   0.000   0.000
  0.000   0.000   0.667   0.000   0.000   0.000   0.000   0.000
  0.000   0.000   0.000   0.667   0.000   0.000   0.000   0.000
  0.000   0.000   0.000   0.000   0.667   0.000   0.000   0.000
  0.000   0.000   0.000   0.000   0.000   0.000   0.000   0.000
  0.000   0.000   0.000   0.000   0.000   0.000   0.000   0.000
  0.000   0.000   0.000   0.000   0.000   0.000   0.000   0.000


----------------------------------------- Iteration    1(   5)  ---------------------------------------


     EDDAV:  cpu time    0.40: real time    0.40
       DOS:  cpu time    0.00: real time    0.00
    CHARGE:  cpu time    0.02: real time    0.02
    MIXING:  cpu time    0.02: real time    0.04
    --------------------------------------------
      LOOP:  cpu time    0.44: real time    0.47

 eigenvalue-minimisations  :    96
 total energy-change (2. order) :-0.3044761E-08  (-0.3045206E-08)
 number of electron      31.9999999 magnetization 
 augmentation part       -1.8053294 magnetization 

 Broyden mixing:
  rms(total) = 0.79305E+00    rms(broyden)= 0.79300E+00
  rms(prec ) = 0.15229E+01
  weight for this iteration     100.00

 Free energy of the ion-electron system (eV)
  ---------------------------------------------------
  alpha Z        PSCENC =        12.68944982
  Ewald energy   TEWEN  =      -907.56842095
  -1/2 Hartree   DENC   =       -45.63559405
  -exchange  EXHF       =         0.00000000
  -V(xc)+E(xc)   XCENC  =       -76.79674597
  PAW double counting   =       265.93453375     -123.69690146
  entropy T*S    EENTRO =         0.00000000
  eigenvalues    EBANDS =        14.08142659
  atomic energy  EATOM  =       826.37398168
  ---------------------------------------------------
  free energy    TOTEN  =       -34.61827059 eV

  energy without entropy =      -34.61827059  energy(sigma->0) =      -34.61827059


--------------------------------------------------------------------------------------------------------




 average (electrostatic) potential at core
  the test charge radii are     0.9892
  (the norm of the test charge is              1.0000)
       1 -84.3496       2 -84.3521       3 -84.3496       4 -84.3456       5 -84.3527
       6 -84.3532       7 -84.3506       8 -84.3515
 
 
 
 E-fermi :   5.1968     XC(G=0):  -9.5533     alpha+bet :-11.7379


 k-point   1 :       0.0000    0.0000    0.0000
  band No.  band energies     occupation 
      1      -6.6371      2.00000
      2      -2.6415      2.00000
      3      -2.6392      2.00000
      4      -2.6315      2.00000
      5      -2.6277      2.00000
      6      -2.6265      2.00000
      7      -2.6216      2.00000
      8       2.3722      2.00000
      9       2.3757      2.00000
     10       2.3770      2.00000
     11       2.3796      2.00000
     12       2.3804      2.00000
     13       2.3812      2.00000
     14       5.0610      2.00000
     15       5.0657      2.00000
     16       5.0731      2.00000
     17       6.1442      0.00000
     18       6.1499      0.00000
     19       6.1524      0.00000
     20       6.1563      0.00000
     21       6.1576      0.00000
     22       6.1589      0.00000
     23       7.8459      0.00000
     24       7.8500      0.00000
     25       7.8526      0.00000
     26       8.1178      0.00000
     27      13.1837      0.00000
     28      13.1838      0.00000
     29      13.2692      0.00000
     30      15.0787      0.00000
     31      15.0818      0.00000
     32      15.0831      0.00000
     33      15.0860      0.00000
     34      15.0864      0.00000
     35      15.0926      0.00000
     36      16.2989      0.00000
     37      16.3047      0.00000
     38      16.3078      0.00000
     39      16.3142      0.00000
     40      16.3158      0.00000
     41      16.3197      0.00000
     42      16.7002      0.00000
     43      16.7048      0.00000
     44      16.7078      0.00000
     45      17.8721      0.00000
     46      17.8745      0.00000
     47      17.8797      0.00000
     48      17.8849      0.00000


--------------------------------------------------------------------------------------------------------


 soft charge-density along one line, spin component           1
         0         1         2         3         4         5         6         7         8         9
 total charge-density along one line
 
 pseudopotential strength for first ion, spin component:           1
 18.662   0.000   0.000   0.000   0.000   0.000   0.000   0.000
  0.000   0.006   0.000   0.000   0.000   0.000   0.000   0.000
  0.000   0.000   4.216   0.000   0.000  -0.004   0.000   0.000
  0.000   0.000   0.000   4.216   0.000   0.000  -0.004   0.000
  0.000   0.000   0.000   0.000   4.216   0.000   0.000  -0.004
  0.000   0.000  -0.004   0.000   0.000   0.005   0.000   0.000
  0.000   0.000   0.000  -0.004   0.000   0.000   0.005   0.000
  0.000   0.000   0.000   0.000  -0.004   0.000   0.000   0.005
 total augmentation occupancy for first ion, spin component:           1
  1.380  -1.051   0.000  -0.001   0.001   0.001   0.001  -0.001
 -1.051   0.918   0.001   0.001   0.000  -0.001  -0.001   0.001
  0.000   0.001   1.164   0.000  -0.001  -0.757   0.000   0.001
 -0.001   0.001   0.000   1.165   0.000   0.000  -0.758  -0.001
  0.001   0.000  -0.001   0.000   1.165   0.001  -0.001  -0.758
  0.001  -0.001  -0.757   0.000   0.001   0.569   0.000  -0.001
  0.001  -0.001   0.000  -0.758  -0.001   0.000   0.569   0.001
 -0.001   0.001   0.001  -0.001  -0.758  -0.001   0.001   0.569


----------------------------------------- Iteration    1(   6)  ---------------------------------------


    POTLOK:  cpu time    0.02: real time    0.02
    SETDIJ:  cpu time    0.02: real time    0.02
    EDDIAG:  cpu time    0.03: real time    0.03
  RMM-DIIS:  cpu time    0.04: real time    0.04
    ORTHCH:  cpu time    0.01: real time    0.01
       DOS:  cpu time    0.00: real time    0.00
    CHARGE:  cpu time    0.02: real time    0.02
    MIXING:  cpu time    0.00: real time    0.00
    --------------------------------------------
      LOOP:  cpu time    0.16: real time    0.18

 eigenvalue-minimisations  :    96
 total energy-change (2. order) : 0.1001650E+01  (-0.3197977E-01)
 number of electron      31.9999999 magnetization 
 augmentation part       -1.7684013 magnetization 

 Broyden mixing:
  rms(total) = 0.47399E+00    rms(broyden)= 0.47399E+00
  rms(prec ) = 0.91064E+00
  weight for this iteration     100.00

 eigenvalues of (default mixing * dielectric matrix)
  average eigenvalue GAMMA=   2.4573
  2.4573

 Free energy of the ion-electron system (eV)
  ---------------------------------------------------
  alpha Z        PSCENC =        12.68944982
  Ewald energy   TEWEN  =      -907.56842095
  -1/2 Hartree   DENC   =       -54.68195769
  -exchange  EXHF       =         0.00000000
  -V(xc)+E(xc)   XCENC  =       -75.44945104
  PAW double counting   =       286.06020398     -144.35849955
  entropy T*S    EENTRO =         0.00000000
  eigenvalues    EBANDS =        23.31807274
  atomic energy  EATOM  =       826.37398168
  ---------------------------------------------------
  free energy    TOTEN  =       -33.61662101 eV

  energy without entropy =      -33.61662101  energy(sigma->0) =      -33.61662101


--------------------------------------------------------------------------------------------------------




 average (electrostatic) potential at core
  the test charge radii are     0.9892
  (the norm of the test charge is              1.0000)
       1 -83.8323       2 -83.8336       3 -83.8324       4 -83.8304       5 -83.8338
       6 -83.8341       7 -83.8328       8 -83.8333
 
 
 
 E-fermi :   5.5491     XC(G=0):  -9.4504     alpha+bet :-11.7379


 k-point   1 :       0.0000    0.0000    0.0000
  band No.  band energies     occupation 
      1      -6.3787      2.00000
      2      -2.3414      2.00000
      3      -2.3392      2.00000
      4      -2.3325      2.00000
      5      -2.3294      2.00000
      6      -2.3280      2.00000
      7      -2.3242      2.00000
      8       2.6339      2.00000
      9       2.6369      2.00000
     10       2.6381      2.00000
     11       2.6406      2.00000
     12       2.6412      2.00000
     13       2.6418      2.00000
     14       5.3945      2.00000
     15       5.3992      2.00000
     16       5.4063      2.00000
     17       6.2596      0.00000
     18       6.2646      0.00000
     19       6.2670      0.00000
     20       6.2705      0.00000
     21       6.2715      0.00000
     22       6.2727      0.00000
     23       8.0532      0.00000
     24       8.0574      0.00000
     25       8.0601      0.00000
     26       8.4862      0.00000
     27      13.3049      0.00000
     28      13.3568      0.00000
     29      13.3569      0.00000
     30      15.3754      0.00000
     31      15.3781      0.00000
     32      15.3792      0.00000
     33      15.3821      0.00000
     34      15.3825      0.00000
     35      15.3881      0.00000
     36      16.5357      0.00000
     37      16.5411      0.00000
     38      16.5439      0.00000
     39      16.5497      0.00000
     40      16.5512      0.00000
     41      16.5546      0.00000
     42      16.7447      0.00000
     43      16.7493      0.00000
     44      16.7524      0.00000
     45      18.1604      0.00000
     46      18.1626      0.00000
     47      18.1696      0.00000
     48      18.1745      0.00000


--------------------------------------------------------------------------------------------------------


 soft charge-density along one line, spin component           1
         0         1         2         3         4         5         6         7         8         9
 total charge-density along one line
 
 pseudopotential strength for first ion, spin component:           1
 18.635  -0.001   0.000   0.000   0.000   0.000   0.000   0.000
 -0.001   0.006   0.000   0.000   0.000   0.000   0.000   0.000
  0.000   0.000   4.221   0.000   0.000  -0.004   0.000   0.000
  0.000   0.000   0.000   4.221   0.000   0.000  -0.004   0.000
  0.000   0.000   0.000   0.000   4.221   0.000   0.000  -0.004
  0.000   0.000  -0.004   0.000   0.000   0.005   0.000   0.000
  0.000   0.000   0.000  -0.004   0.000   0.000   0.005   0.000
  0.000   0.000   0.000   0.000  -0.004   0.000   0.000   0.005
 total augmentation occupancy for first ion, spin component:           1
  1.351  -1.090   0.000  -0.001   0.001   0.001   0.002  -0.001
 -1.090   0.996   0.001   0.000   0.000  -0.001  -0.001   0.001
  0.000   0.001   1.146   0.000  -0.001  -0.781   0.000   0.001
 -0.001   0.000   0.000   1.147   0.000   0.000  -0.782  -0.001
  0.001   0.000  -0.001   0.000   1.147   0.001  -0.001  -0.782
  0.001  -0.001  -0.781   0.000   0.001   0.607   0.000  -0.001
  0.002  -0.001   0.000  -0.782  -0.001   0.000   0.607   0.001
 -0.001   0.001   0.001  -0.001  -0.782  -0.001   0.001   0.608


----------------------------------------- Iteration    1(   7)  ---------------------------------------


    POTLOK:  cpu time    0.02: real time    0.02
    SETDIJ:  cpu time    0.02: real time    0.02
    EDDIAG:  cpu time    0.02: real time    0.02
  RMM-DIIS:  cpu time    0.02: real time    0.02
    ORTHCH:  cpu time    0.01: real time    0.01
       DOS:  cpu time    0.00: real time    0.00
    CHARGE:  cpu time    0.02: real time    0.02
    MIXING:  cpu time    0.00: real time    0.00
    --------------------------------------------
      LOOP:  cpu time    0.12: real time    0.12

 eigenvalue-minimisations  :    96
 total energy-change (2. order) : 0.4246151E+00  (-0.7387663E-01)
 number of electron      31.9999999 magnetization 
 augmentation part       -1.7214473 magnetization 

 Broyden mixing:
  rms(total) = 0.46269E-01    rms(broyden)= 0.46259E-01
  rms(prec ) = 0.78488E-01
  weight for this iteration     100.00

 eigenvalues of (default mixing * dielectric matrix)
  average eigenvalue GAMMA=   2.5305
  2.5305  2.5305

 Free energy of the ion-electron system (eV)
  ---------------------------------------------------
  alpha Z        PSCENC =        12.68944982
  Ewald energy   TEWEN  =      -907.56842095
  -1/2 Hartree   DENC   =       -70.51217738
  -exchange  EXHF       =         0.00000000
  -V(xc)+E(xc)   XCENC  =       -73.00939140
  PAW double counting   =       313.72272324     -172.73468360
  entropy T*S    EENTRO =         0.00000000
  eigenvalues    EBANDS =        37.84651270
  atomic energy  EATOM  =       826.37398168
  ---------------------------------------------------
  free energy    TOTEN  =       -33.19200589 eV

  energy without entropy =      -33.19200589  energy(sigma->0) =      -33.19200589


--------------------------------------------------------------------------------------------------------




 average (electrostatic) potential at core
  the test charge radii are     0.9892
  (the norm of the test charge is              1.0000)
       1 -83.1447       2 -83.1458       3 -83.1454       4 -83.1445       5 -83.1458
       6 -83.1467       7 -83.1454       8 -83.1463
 
 
 
 E-fermi :   6.0977     XC(G=0):  -9.2018     alpha+bet :-11.7379


 k-point   1 :       0.0000    0.0000    0.0000
  band No.  band energies     occupation 
      1      -5.9621      2.00000
      2      -1.8738      2.00000
      3      -1.8719      2.00000
      4      -1.8659      2.00000
      5      -1.8636      2.00000
      6      -1.8618      2.00000
      7      -1.8591      2.00000
      8       3.0471      2.00000
      9       3.0495      2.00000
     10       3.0506      2.00000
     11       3.0531      2.00000
     12       3.0534      2.00000
     13       3.0540      2.00000
     14       5.9192      2.00000
     15       5.9238      2.00000
     16       5.9307      2.00000
     17       6.5191      0.00000
     18       6.5232      0.00000
     19       6.5256      0.00000
     20       6.5285      0.00000
     21       6.5293      0.00000
     22       6.5304      0.00000
     23       8.3782      0.00000
     24       8.3825      0.00000
     25       8.3853      0.00000
     26       9.0452      0.00000
     27      13.6012      0.00000
     28      13.6204      0.00000
     29      13.6204      0.00000
     30      15.8259      0.00000
     31      15.8283      0.00000
     32      15.8292      0.00000
     33      15.8320      0.00000
     34      15.8323      0.00000
     35      15.8374      0.00000
     36      16.8995      0.00000
     37      16.9039      0.00000
     38      16.9070      0.00000
     39      16.9561      0.00000
     40      16.9609      0.00000
     41      16.9633      0.00000
     42      16.9685      0.00000
     43      16.9698      0.00000
     44      16.9730      0.00000
     45      18.6548      0.00000
     46      18.6637      0.00000
     47      18.6716      0.00000
     48      18.6770      0.00000


--------------------------------------------------------------------------------------------------------


 soft charge-density along one line, spin component           1
         0         1         2         3         4         5         6         7         8         9
 total charge-density along one line
 
 pseudopotential strength for first ion, spin component:           1
 18.596  -0.001   0.000   0.000   0.000   0.000   0.000   0.000
 -0.001   0.006   0.000   0.000   0.000   0.000   0.000   0.000
  0.000   0.000   4.227   0.000   0.000  -0.005   0.000   0.000
  0.000   0.000   0.000   4.227   0.000   0.000  -0.005   0.000
  0.000   0.000   0.000   0.000   4.227   0.000   0.000  -0.005
  0.000   0.000  -0.005   0.000   0.000   0.005   0.000   0.000
  0.000   0.000   0.000  -0.005   0.000   0.000   0.005   0.000
  0.000   0.000   0.000   0.000  -0.005   0.000   0.000   0.005
 total augmentation occupancy for first ion, spin component:           1
  1.315  -1.111  -0.001  -0.001   0.001   0.001   0.002  -0.001
 -1.111   1.057   0.000   0.000   0.000  -0.001  -0.001   0.000
 -0.001   0.000   1.121   0.001  -0.001  -0.804   0.000   0.001
 -0.001   0.000   0.001   1.123  -0.001   0.000  -0.805  -0.001
  0.001   0.000  -0.001  -0.001   1.122   0.001   0.000  -0.805
  0.001  -0.001  -0.804   0.000   0.001   0.651   0.000  -0.001
  0.002  -0.001   0.000  -0.805   0.000   0.000   0.651   0.001
 -0.001   0.000   0.001  -0.001  -0.805  -0.001   0.001   0.652


----------------------------------------- Iteration    1(   8)  ---------------------------------------


    POTLOK:  cpu time    0.02: real time    0.02
    SETDIJ:  cpu time    0.02: real time    0.02
    EDDIAG:  cpu time    0.02: real time    0.02
  RMM-DIIS:  cpu time    0.02: real time    0.02
    ORTHCH:  cpu time    0.01: real time    0.01
       DOS:  cpu time    0.00: real time    0.00
    CHARGE:  cpu time    0.02: real time    0.02
    MIXING:  cpu time    0.00: real time    0.00
    --------------------------------------------
      LOOP:  cpu time    0.11: real time    0.12

 eigenvalue-minimisations  :    96
 total energy-change (2. order) :-0.3197685E-01  (-0.2164253E-02)
 number of electron      31.9999999 magnetization 
 augmentation part       -1.7275493 magnetization 

 Broyden mixing:
  rms(total) = 0.75085E-02    rms(broyden)= 0.75080E-02
  rms(prec ) = 0.17995E-01
  weight for this iteration     100.00

 eigenvalues of (default mixing * dielectric matrix)
  average eigenvalue GAMMA=   2.1175
  1.2635  2.8604  2.2287

 Free energy of the ion-electron system (eV)
  ---------------------------------------------------
  alpha Z        PSCENC =        12.68944982
  Ewald energy   TEWEN  =      -907.56842095
  -1/2 Hartree   DENC   =       -70.39573035
  -exchange  EXHF       =         0.00000000
  -V(xc)+E(xc)   XCENC  =       -72.96596237
  PAW double counting   =       307.35502402     -166.18201858
  entropy T*S    EENTRO =         0.00000000
  eigenvalues    EBANDS =        37.46969398
  atomic energy  EATOM  =       826.37398168
  ---------------------------------------------------
  free energy    TOTEN  =       -33.22398274 eV

  energy without entropy =      -33.22398274  energy(sigma->0) =      -33.22398274


--------------------------------------------------------------------------------------------------------




 average (electrostatic) potential at core
  the test charge radii are     0.9892
  (the norm of the test charge is              1.0000)
       1 -83.2476       2 -83.2496       3 -83.2480       4 -83.2451       5 -83.2501
       6 -83.2508       7 -83.2486       8 -83.2495
 
 
 
 E-fermi :   6.0368     XC(G=0):  -9.1504     alpha+bet :-11.7379


 k-point   1 :       0.0000    0.0000    0.0000
  band No.  band energies     occupation 
      1      -5.9632      2.00000
      2      -1.8861      2.00000
      3      -1.8841      2.00000
      4      -1.8776      2.00000
      5      -1.8748      2.00000
      6      -1.8733      2.00000
      7      -1.8698      2.00000
      8       3.0352      2.00000
      9       3.0378      2.00000
     10       3.0390      2.00000
     11       3.0418      2.00000
     12       3.0420      2.00000
     13       3.0427      2.00000
     14       5.9031      2.00000
     15       5.9076      2.00000
     16       5.9146      2.00000
     17       6.5696      0.00000
     18       6.5739      0.00000
     19       6.5763      0.00000
     20       6.5794      0.00000
     21       6.5804      0.00000
     22       6.5816      0.00000
     23       8.3676      0.00000
     24       8.3718      0.00000
     25       8.3745      0.00000
     26       9.0380      0.00000
     27      13.6064      0.00000
     28      13.6064      0.00000
     29      13.7783      0.00000
     30      15.8110      0.00000
     31      15.8136      0.00000
     32      15.8146      0.00000
     33      15.8172      0.00000
     34      15.8174      0.00000
     35      15.8230      0.00000
     36      16.9367      0.00000
     37      16.9406      0.00000
     38      16.9436      0.00000
     39      16.9623      0.00000
     40      16.9673      0.00000
     41      16.9696      0.00000
     42      16.9750      0.00000
     43      16.9764      0.00000
     44      16.9799      0.00000
     45      18.6907      0.00000
     46      18.7015      0.00000
     47      18.7100      0.00000
     48      18.7155      0.00000


--------------------------------------------------------------------------------------------------------


 soft charge-density along one line, spin component           1
         0         1         2         3         4         5         6         7         8         9
 total charge-density along one line
 
 pseudopotential strength for first ion, spin component:           1
 18.599  -0.001   0.000   0.000   0.000   0.000   0.000   0.000
 -0.001   0.006   0.000   0.000   0.000   0.000   0.000   0.000
  0.000   0.000   4.224   0.000   0.000  -0.005   0.000   0.000
  0.000   0.000   0.000   4.224   0.000   0.000  -0.005   0.000
  0.000   0.000   0.000   0.000   4.224   0.000   0.000  -0.005
  0.000   0.000  -0.005   0.000   0.000   0.005   0.000   0.000
  0.000   0.000   0.000  -0.005   0.000   0.000   0.005   0.000
  0.000   0.000   0.000   0.000  -0.005   0.000   0.000   0.005
 total augmentation occupancy for first ion, spin component:           1
  1.320  -1.092  -0.001  -0.001   0.001   0.001   0.002  -0.001
 -1.092   1.020   0.000   0.000   0.000  -0.001  -0.001   0.001
 -0.001   0.000   1.122   0.000  -0.001  -0.800   0.000   0.001
 -0.001   0.000   0.000   1.123  -0.001   0.000  -0.801  -0.001
  0.001   0.000  -0.001  -0.001   1.123   0.001   0.000  -0.801
  0.001  -0.001  -0.800   0.000   0.001   0.646   0.000  -0.001
  0.002  -0.001   0.000  -0.801   0.000   0.000   0.647   0.001
 -0.001   0.001   0.001  -0.001  -0.801  -0.001   0.001   0.647


----------------------------------------- Iteration    1(   9)  ---------------------------------------


    POTLOK:  cpu time    0.02: real time    0.02
    SETDIJ:  cpu time    0.02: real time    0.02
    EDDIAG:  cpu time    0.02: real time    0.02
  RMM-DIIS:  cpu time    0.03: real time    0.03
    ORTHCH:  cpu time    0.01: real time    0.01
       DOS:  cpu time    0.00: real time    0.00
    CHARGE:  cpu time    0.02: real time    0.02
    MIXING:  cpu time    0.00: real time    0.00
    --------------------------------------------
      LOOP:  cpu time    0.12: real time    0.13

 eigenvalue-minimisations  :   107
 total energy-change (2. order) :-0.1122063E-02  (-0.1255426E-03)
 number of electron      31.9999999 magnetization 
 augmentation part       -1.7274639 magnetization 

 Broyden mixing:
  rms(total) = 0.41720E-02    rms(broyden)= 0.41719E-02
  rms(prec ) = 0.68537E-02
  weight for this iteration     100.00

 eigenvalues of (default mixing * dielectric matrix)
  average eigenvalue GAMMA=   2.3117
  0.9895  3.2762  2.6939  2.2871

 Free energy of the ion-electron system (eV)
  ---------------------------------------------------
  alpha Z        PSCENC =        12.68944982
  Ewald energy   TEWEN  =      -907.56842095
  -1/2 Hartree   DENC   =       -70.79205900
  -exchange  EXHF       =         0.00000000
  -V(xc)+E(xc)   XCENC  =       -72.90683565
  PAW double counting   =       307.71209947     -166.54967485
  entropy T*S    EENTRO =         0.00000000
  eigenvalues    EBANDS =        37.81635469
  atomic energy  EATOM  =       826.37398168
  ---------------------------------------------------
  free energy    TOTEN  =       -33.22510480 eV

  energy without entropy =      -33.22510480  energy(sigma->0) =      -33.22510480


--------------------------------------------------------------------------------------------------------




 average (electrostatic) potential at core
  the test charge radii are     0.9892
  (the norm of the test charge is              1.0000)
       1 -83.2337       2 -83.2351       3 -83.2338       4 -83.2314       5 -83.2355
       6 -83.2358       7 -83.2344       8 -83.2348
 
 
 
 E-fermi :   6.0517     XC(G=0):  -9.1363     alpha+bet :-11.7379


 k-point   1 :       0.0000    0.0000    0.0000
  band No.  band energies     occupation 
      1      -5.9520      2.00000
      2      -1.8747      2.00000
      3      -1.8727      2.00000
      4      -1.8664      2.00000
      5      -1.8638      2.00000
      6      -1.8623      2.00000
      7      -1.8589      2.00000
      8       3.0451      2.00000
      9       3.0477      2.00000
     10       3.0489      2.00000
     11       3.0515      2.00000
     12       3.0518      2.00000
     13       3.0524      2.00000
     14       5.9152      2.00000
     15       5.9197      2.00000
     16       5.9266      2.00000
     17       6.5835      0.00000
     18       6.5879      0.00000
     19       6.5903      0.00000
     20       6.5934      0.00000
     21       6.5945      0.00000
     22       6.5956      0.00000
     23       8.3752      0.00000
     24       8.3794      0.00000
     25       8.3822      0.00000
     26       9.0525      0.00000
     27      13.6116      0.00000
     28      13.6117      0.00000
     29      13.8103      0.00000
     30      15.8216      0.00000
     31      15.8241      0.00000
     32      15.8251      0.00000
     33      15.8278      0.00000
     34      15.8281      0.00000
     35      15.8334      0.00000
     36      16.9466      0.00000
     37      16.9505      0.00000
     38      16.9536      0.00000
     39      16.9745      0.00000
     40      16.9794      0.00000
     41      16.9817      0.00000
     42      16.9870      0.00000
     43      16.9885      0.00000
     44      16.9919      0.00000
     45      18.7084      0.00000
     46      18.7195      0.00000
     47      18.7283      0.00000
     48      18.7342      0.00000


--------------------------------------------------------------------------------------------------------


 soft charge-density along one line, spin component           1
         0         1         2         3         4         5         6         7         8         9
 total charge-density along one line
 
 pseudopotential strength for first ion, spin component:           1
 18.598  -0.001   0.000   0.000   0.000   0.000   0.000   0.000
 -0.001   0.006   0.000   0.000   0.000   0.000   0.000   0.000
  0.000   0.000   4.224   0.000   0.000  -0.005   0.000   0.000
  0.000   0.000   0.000   4.224   0.000   0.000  -0.005   0.000
  0.000   0.000   0.000   0.000   4.224   0.000   0.000  -0.005
  0.000   0.000  -0.005   0.000   0.000   0.005   0.000   0.000
  0.000   0.000   0.000  -0.005   0.000   0.000   0.005   0.000
  0.000   0.000   0.000   0.000  -0.005   0.000   0.000   0.005
 total augmentation occupancy for first ion, spin component:           1
  1.320  -1.086  -0.001  -0.001   0.001   0.001   0.002  -0.001
 -1.086   1.011   0.000   0.000   0.000  -0.001  -0.001   0.001
 -0.001   0.000   1.122   0.000  -0.001  -0.800   0.000   0.001
 -0.001   0.000   0.000   1.123  -0.001   0.000  -0.801  -0.001
  0.001   0.000  -0.001  -0.001   1.123   0.001   0.000  -0.800
  0.001  -0.001  -0.800   0.000   0.001   0.646   0.000  -0.001
  0.002  -0.001   0.000  -0.801   0.000   0.000   0.647   0.001
 -0.001   0.001   0.001  -0.001  -0.800  -0.001   0.001   0.647


----------------------------------------- Iteration    1(  10)  ---------------------------------------


    POTLOK:  cpu time    0.02: real time    0.02
    SETDIJ:  cpu time    0.02: real time    0.03
    EDDIAG:  cpu time    0.02: real time    0.02
  RMM-DIIS:  cpu time    0.02: real time    0.02
    ORTHCH:  cpu time    0.01: real time    0.01
       DOS:  cpu time    0.00: real time    0.00
    CHARGE:  cpu time    0.02: real time    0.02
    MIXING:  cpu time    0.00: real time    0.00
    --------------------------------------------
      LOOP:  cpu time    0.12: real time    0.13

 eigenvalue-minimisations  :   104
 total energy-change (2. order) :-0.1873331E-03  (-0.2559902E-04)
 number of electron      31.9999999 magnetization 
 augmentation part       -1.7273291 magnetization 

 Broyden mixing:
  rms(total) = 0.53098E-03    rms(broyden)= 0.53059E-03
  rms(prec ) = 0.10248E-02
  weight for this iteration     100.00

 eigenvalues of (default mixing * dielectric matrix)
  average eigenvalue GAMMA=   2.0307
  3.0895  2.6190  2.1727  0.9790  1.2932

 Free energy of the ion-electron system (eV)
  ---------------------------------------------------
  alpha Z        PSCENC =        12.68944982
  Ewald energy   TEWEN  =      -907.56842095
  -1/2 Hartree   DENC   =       -70.84733533
  -exchange  EXHF       =         0.00000000
  -V(xc)+E(xc)   XCENC  =       -72.90974202
  PAW double counting   =       307.80558237     -166.64960951
  entropy T*S    EENTRO =         0.00000000
  eigenvalues    EBANDS =        37.88080181
  atomic energy  EATOM  =       826.37398168
  ---------------------------------------------------
  free energy    TOTEN  =       -33.22529213 eV

  energy without entropy =      -33.22529213  energy(sigma->0) =      -33.22529213


--------------------------------------------------------------------------------------------------------




 average (electrostatic) potential at core
  the test charge radii are     0.9892
  (the norm of the test charge is              1.0000)
       1 -83.2249       2 -83.2260       3 -83.2250       4 -83.2233       5 -83.2263
       6 -83.2265       7 -83.2254       8 -83.2258
 
 
 
 E-fermi :   6.0564     XC(G=0):  -9.1306     alpha+bet :-11.7379


 k-point   1 :       0.0000    0.0000    0.0000
  band No.  band energies     occupation 
      1      -5.9495      2.00000
      2      -1.8724      2.00000
      3      -1.8704      2.00000
      4      -1.8643      2.00000
      5      -1.8618      2.00000
      6      -1.8602      2.00000
      7      -1.8570      2.00000
      8       3.0470      2.00000
      9       3.0495      2.00000
     10       3.0506      2.00000
     11       3.0532      2.00000
     12       3.0535      2.00000
     13       3.0541      2.00000
     14       5.9174      2.00000
     15       5.9219      2.00000
     16       5.9288      2.00000
     17       6.5889      0.00000
     18       6.5933      0.00000
     19       6.5958      0.00000
     20       6.5989      0.00000
     21       6.5999      0.00000
     22       6.6011      0.00000
     23       8.3762      0.00000
     24       8.3804      0.00000
     25       8.3832      0.00000
     26       9.0563      0.00000
     27      13.6117      0.00000
     28      13.6117      0.00000
     29      13.8267      0.00000
     30      15.8235      0.00000
     31      15.8260      0.00000
     32      15.8270      0.00000
     33      15.8297      0.00000
     34      15.8300      0.00000
     35      15.8353      0.00000
     36      16.9508      0.00000
     37      16.9547      0.00000
     38      16.9577      0.00000
     39      16.9774      0.00000
     40      16.9822      0.00000
     41      16.9845      0.00000
     42      16.9898      0.00000
     43      16.9912      0.00000
     44      16.9946      0.00000
     45      18.7162      0.00000
     46      18.7268      0.00000
     47      18.7354      0.00000
     48      18.7412      0.00000


--------------------------------------------------------------------------------------------------------


 soft charge-density along one line, spin component           1
         0         1         2         3         4         5         6         7         8         9
 total charge-density along one line
 
 pseudopotential strength for first ion, spin component:           1
 18.597  -0.001   0.000   0.000   0.000   0.000   0.000   0.000
 -0.001   0.006   0.000   0.000   0.000   0.000   0.000   0.000
  0.000   0.000   4.224   0.000   0.000  -0.005   0.000   0.000
  0.000   0.000   0.000   4.224   0.000   0.000  -0.005   0.000
  0.000   0.000   0.000   0.000   4.224   0.000   0.000  -0.005
  0.000   0.000  -0.005   0.000   0.000   0.005   0.000   0.000
  0.000   0.000   0.000  -0.005   0.000   0.000   0.005   0.000
  0.000   0.000   0.000   0.000  -0.005   0.000   0.000   0.005
 total augmentation occupancy for first ion, spin component:           1
  1.320  -1.086  -0.001  -0.001   0.001   0.001   0.002  -0.001
 -1.086   1.012   0.000   0.000   0.000  -0.001  -0.001   0.000
 -0.001   0.000   1.122   0.000  -0.001  -0.800   0.000   0.001
 -0.001   0.000   0.000   1.123  -0.001   0.000  -0.801  -0.001
  0.001   0.000  -0.001  -0.001   1.123   0.001   0.000  -0.801
  0.001  -0.001  -0.800   0.000   0.001   0.647   0.000  -0.001
  0.002  -0.001   0.000  -0.801   0.000   0.000   0.648   0.001
 -0.001   0.000   0.001  -0.001  -0.801  -0.001   0.001   0.648


----------------------------------------- Iteration    1(  11)  ---------------------------------------


    POTLOK:  cpu time    0.02: real time    0.02
    SETDIJ:  cpu time    0.02: real time    0.02
    EDDIAG:  cpu time    0.02: real time    0.02
  RMM-DIIS:  cpu time    0.05: real time    0.05
    ORTHCH:  cpu time    0.01: real time    0.01
       DOS:  cpu time    0.00: real time    0.00
    CHARGE:  cpu time    0.02: real time    0.02
    MIXING:  cpu time    0.00: real time    0.00
    --------------------------------------------
      LOOP:  cpu time    0.14: real time    0.14

 eigenvalue-minimisations  :   113
 total energy-change (2. order) : 0.4163920E-05  (-0.3863718E-06)
 number of electron      31.9999999 magnetization 
 augmentation part       -1.7274360 magnetization 

 Broyden mixing:
  rms(total) = 0.15256E-03    rms(broyden)= 0.15251E-03
  rms(prec ) = 0.28967E-03
  weight for this iteration     100.00

 eigenvalues of (default mixing * dielectric matrix)
  average eigenvalue GAMMA=   1.9989
  3.2059  2.7014  2.0698  2.0698  0.9734  0.9734

 Free energy of the ion-electron system (eV)
  ---------------------------------------------------
  alpha Z        PSCENC =        12.68944982
  Ewald energy   TEWEN  =      -907.56842095
  -1/2 Hartree   DENC   =       -70.82646682
  -exchange  EXHF       =         0.00000000
  -V(xc)+E(xc)   XCENC  =       -72.91102156
  PAW double counting   =       307.73385530     -166.57503132
  entropy T*S    EENTRO =         0.00000000
  eigenvalues    EBANDS =        37.85836589
  atomic energy  EATOM  =       826.37398168
  ---------------------------------------------------
  free energy    TOTEN  =       -33.22528797 eV

  energy without entropy =      -33.22528797  energy(sigma->0) =      -33.22528797


--------------------------------------------------------------------------------------------------------




 average (electrostatic) potential at core
  the test charge radii are     0.9892
  (the norm of the test charge is              1.0000)
       1 -83.2272       2 -83.2285       3 -83.2273       4 -83.2252       5 -83.2289
       6 -83.2291       7 -83.2278       8 -83.2282
 
 
 
 E-fermi :   6.0557     XC(G=0):  -9.1314     alpha+bet :-11.7379


 k-point   1 :       0.0000    0.0000    0.0000
  band No.  band energies     occupation 
      1      -5.9502      2.00000
      2      -1.8733      2.00000
      3      -1.8712      2.00000
      4      -1.8650      2.00000
      5      -1.8625      2.00000
      6      -1.8609      2.00000
      7      -1.8576      2.00000
      8       3.0463      2.00000
      9       3.0488      2.00000
     10       3.0500      2.00000
     11       3.0526      2.00000
     12       3.0529      2.00000
     13       3.0535      2.00000
     14       5.9166      2.00000
     15       5.9211      2.00000
     16       5.9280      2.00000
     17       6.5881      0.00000
     18       6.5925      0.00000
     19       6.5950      0.00000
     20       6.5981      0.00000
     21       6.5991      0.00000
     22       6.6003      0.00000
     23       8.3758      0.00000
     24       8.3800      0.00000
     25       8.3827      0.00000
     26       9.0553      0.00000
     27      13.6114      0.00000
     28      13.6114      0.00000
     29      13.8248      0.00000
     30      15.8228      0.00000
     31      15.8253      0.00000
     32      15.8263      0.00000
     33      15.8289      0.00000
     34      15.8293      0.00000
     35      15.8346      0.00000
     36      16.9502      0.00000
     37      16.9541      0.00000
     38      16.9572      0.00000
     39      16.9766      0.00000
     40      16.9815      0.00000
     41      16.9838      0.00000
     42      16.9891      0.00000
     43      16.9905      0.00000
     44      16.9940      0.00000
     45      18.7181      0.00000
     46      18.7269      0.00000
     47      18.7353      0.00000
     48      18.7405      0.00000


--------------------------------------------------------------------------------------------------------


 soft charge-density along one line, spin component           1
         0         1         2         3         4         5         6         7         8         9
 total charge-density along one line
 
 pseudopotential strength for first ion, spin component:           1
 18.597  -0.001   0.000   0.000   0.000   0.000   0.000   0.000
 -0.001   0.006   0.000   0.000   0.000   0.000   0.000   0.000
  0.000   0.000   4.224   0.000   0.000  -0.005   0.000   0.000
  0.000   0.000   0.000   4.224   0.000   0.000  -0.005   0.000
  0.000   0.000   0.000   0.000   4.224   0.000   0.000  -0.005
  0.000   0.000  -0.005   0.000   0.000   0.005   0.000   0.000
  0.000   0.000   0.000  -0.005   0.000   0.000   0.005   0.000
  0.000   0.000   0.000   0.000  -0.005   0.000   0.000   0.005
 total augmentation occupancy for first ion, spin component:           1
  1.320  -1.086  -0.001  -0.001   0.001   0.001   0.002  -0.001
 -1.086   1.011   0.000   0.000   0.000  -0.001  -0.001   0.001
 -0.001   0.000   1.122   0.000  -0.001  -0.800   0.000   0.001
 -0.001   0.000   0.000   1.123  -0.001   0.000  -0.801  -0.001
  0.001   0.000  -0.001  -0.001   1.123   0.001   0.000  -0.801
  0.001  -0.001  -0.800   0.000   0.001   0.647   0.000  -0.001
  0.002  -0.001   0.000  -0.801   0.000   0.000   0.648   0.001
 -0.001   0.001   0.001  -0.001  -0.801  -0.001   0.001   0.648


----------------------------------------- Iteration    1(  12)  ---------------------------------------


    POTLOK:  cpu time    0.02: real time    0.02
    SETDIJ:  cpu time    0.02: real time    0.02
    EDDIAG:  cpu time    0.02: real time    0.02
  RMM-DIIS:  cpu time    0.05: real time    0.05
    ORTHCH:  cpu time    0.01: real time    0.01
       DOS:  cpu time    0.00: real time    0.00
    CHARGE:  cpu time    0.02: real time    0.02
    MIXING:  cpu time    0.00: real time    0.00
    --------------------------------------------
      LOOP:  cpu time    0.14: real time    0.14

 eigenvalue-minimisations  :   127
 total energy-change (2. order) :-0.4538244E-06  (-0.4557969E-07)
 number of electron      31.9999999 magnetization 
 augmentation part       -1.7274269 magnetization 

 Broyden mixing:
  rms(total) = 0.55310E-04    rms(broyden)= 0.55284E-04
  rms(prec ) = 0.81453E-04
  weight for this iteration     100.00

 eigenvalues of (default mixing * dielectric matrix)
  average eigenvalue GAMMA=   1.9876
  3.1938  2.7310  2.4490  2.0730  1.5088  0.9980  0.9593

 Free energy of the ion-electron system (eV)
  ---------------------------------------------------
  alpha Z        PSCENC =        12.68944982
  Ewald energy   TEWEN  =      -907.56842095
  -1/2 Hartree   DENC   =       -70.83020624
  -exchange  EXHF       =         0.00000000
  -V(xc)+E(xc)   XCENC  =       -72.91099041
  PAW double counting   =       307.73851145     -166.57976492
  entropy T*S    EENTRO =         0.00000000
  eigenvalues    EBANDS =        37.86215114
  atomic energy  EATOM  =       826.37398168
  ---------------------------------------------------
  free energy    TOTEN  =       -33.22528842 eV

  energy without entropy =      -33.22528842  energy(sigma->0) =      -33.22528842


--------------------------------------------------------------------------------------------------------




 average (electrostatic) potential at core
  the test charge radii are     0.9892
  (the norm of the test charge is              1.0000)
       1 -83.2267       2 -83.2281       3 -83.2269       4 -83.2247       5 -83.2285
       6 -83.2288       7 -83.2274       8 -83.2278
 
 
 
 E-fermi :   6.0560     XC(G=0):  -9.1312     alpha+bet :-11.7379


 k-point   1 :       0.0000    0.0000    0.0000
  band No.  band energies     occupation 
      1      -5.9500      2.00000
      2      -1.8732      2.00000
      3      -1.8711      2.00000
      4      -1.8649      2.00000
      5      -1.8623      2.00000
      6      -1.8607      2.00000
      7      -1.8574      2.00000
      8       3.0464      2.00000
      9       3.0489      2.00000
     10       3.0501      2.00000
     11       3.0527      2.00000
     12       3.0530      2.00000
[...]
    LRDIIS:  cpu time    0.02: real time    0.02
    LRDIAG:  cpu time    0.01: real time    0.01
    MIXING:  cpu time    0.00: real time    0.00
    --------------------------------------------
      LOOP:  cpu time    0.15: real time    0.15

 Broyden mixing:
  rms(total) = 0.12928E-01    rms(broyden)= 0.12925E-01
  rms(prec ) = 0.22409E-01
  weight for this iteration     100.00

 eigenvalues of (default mixing * dielectric matrix)
  average eigenvalue GAMMA=   1.9665
  2.5562  1.4258  1.9177

 Free energy of the ion-electron system (eV)
  ---------------------------------------------------
  -1/2 Hartree   DENC   =        -4.58125664
  -V(xc)+E(xc)   XCENC  =         0.93777436
  PAW double counting   =         3.11175895       -3.16126564
  entropy T*S    EENTRO =         0.00000000
  eigenvalues    EBANDS =       -24.49744382
  ---------------------------------------------------
  free energy    TOTEN  =       -28.19043280 eV

  energy without entropy =      -28.19043280


----------------------------------------- Iteration    3(   6)  ---------------------------------------


   POT+DIJ:  cpu time    0.08: real time    0.08
    HAMIL1:  cpu time    0.00: real time    0.01
    LRDIAG:  cpu time    0.01: real time    0.01
    LRDIIS:  cpu time    0.02: real time    0.02
    LRDIAG:  cpu time    0.01: real time    0.01
    MIXING:  cpu time    0.00: real time    0.00
    --------------------------------------------
      LOOP:  cpu time    0.15: real time    0.16

 Broyden mixing:
  rms(total) = 0.68245E-02    rms(broyden)= 0.68242E-02
  rms(prec ) = 0.11695E-01
  weight for this iteration     100.00

 eigenvalues of (default mixing * dielectric matrix)
  average eigenvalue GAMMA=   2.0749
  3.0326  2.4874  1.1243  1.6554

 Free energy of the ion-electron system (eV)
  ---------------------------------------------------
  -1/2 Hartree   DENC   =        -4.61548466
  -V(xc)+E(xc)   XCENC  =         0.95011334
  PAW double counting   =         3.10015012       -3.14950916
  entropy T*S    EENTRO =         0.00000000
  eigenvalues    EBANDS =       -24.52938296
  ---------------------------------------------------
  free energy    TOTEN  =       -28.24411332 eV

  energy without entropy =      -28.24411332


----------------------------------------- Iteration    3(   7)  ---------------------------------------


   POT+DIJ:  cpu time    0.08: real time    0.08
    HAMIL1:  cpu time    0.00: real time    0.01
    LRDIAG:  cpu time    0.01: real time    0.01
    LRDIIS:  cpu time    0.02: real time    0.02
    LRDIAG:  cpu time    0.01: real time    0.01
    MIXING:  cpu time    0.00: real time    0.00
    --------------------------------------------
      LOOP:  cpu time    0.15: real time    0.15

 Broyden mixing:
  rms(total) = 0.54126E-03    rms(broyden)= 0.54030E-03
  rms(prec ) = 0.10285E-02
  weight for this iteration     100.00

 eigenvalues of (default mixing * dielectric matrix)
  average eigenvalue GAMMA=   1.9638
  3.0918  2.4049  1.1158  1.6783  1.5283

 Free energy of the ion-electron system (eV)
  ---------------------------------------------------
  -1/2 Hartree   DENC   =        -4.62633985
  -V(xc)+E(xc)   XCENC  =         0.95743419
  PAW double counting   =         3.06431973       -3.11314112
  entropy T*S    EENTRO =         0.00000000
  eigenvalues    EBANDS =       -24.56448210
  ---------------------------------------------------
  free energy    TOTEN  =       -28.28220914 eV

  energy without entropy =      -28.28220914


----------------------------------------- Iteration    3(   8)  ---------------------------------------


   POT+DIJ:  cpu time    0.08: real time    0.08
    HAMIL1:  cpu time    0.01: real time    0.01
    LRDIAG:  cpu time    0.01: real time    0.01
    LRDIIS:  cpu time    0.02: real time    0.02
    LRDIAG:  cpu time    0.01: real time    0.01
    MIXING:  cpu time    0.00: real time    0.00
    --------------------------------------------
      LOOP:  cpu time    0.16: real time    0.16

 Broyden mixing:
  rms(total) = 0.27531E-03    rms(broyden)= 0.27523E-03
  rms(prec ) = 0.40700E-03
  weight for this iteration     100.00

 eigenvalues of (default mixing * dielectric matrix)
  average eigenvalue GAMMA=   1.9178
  3.0872  2.4867  2.0307  1.6682  1.0927  1.1415

 Free energy of the ion-electron system (eV)
  ---------------------------------------------------
  -1/2 Hartree   DENC   =        -4.62991349
  -V(xc)+E(xc)   XCENC  =         0.95836136
  PAW double counting   =         3.06839346       -3.11728313
  entropy T*S    EENTRO =         0.00000000
  eigenvalues    EBANDS =       -24.56543924
  ---------------------------------------------------
  free energy    TOTEN  =       -28.28588103 eV

  energy without entropy =      -28.28588103


----------------------------------------- Iteration    3(   9)  ---------------------------------------


   POT+DIJ:  cpu time    0.08: real time    0.08
    HAMIL1:  cpu time    0.00: real time    0.01
    LRDIAG:  cpu time    0.01: real time    0.01
    LRDIIS:  cpu time    0.02: real time    0.02
    LRDIAG:  cpu time    0.01: real time    0.01
    MIXING:  cpu time    0.00: real time    0.00
    --------------------------------------------
      LOOP:  cpu time    0.15: real time    0.16

 Broyden mixing:
  rms(total) = 0.10506E-03    rms(broyden)= 0.10504E-03
  rms(prec ) = 0.15892E-03
  weight for this iteration     100.00

 eigenvalues of (default mixing * dielectric matrix)
  average eigenvalue GAMMA=   1.8953
  3.1786  2.7391  2.3970  1.6750  1.2818  1.1022  0.8936

 Free energy of the ion-electron system (eV)
  ---------------------------------------------------
  -1/2 Hartree   DENC   =        -4.62957729
  -V(xc)+E(xc)   XCENC  =         0.95829511
  PAW double counting   =         3.07045601       -3.11938129
  entropy T*S    EENTRO =         0.00000000
  eigenvalues    EBANDS =       -24.56570426
  ---------------------------------------------------
  free energy    TOTEN  =       -28.28591172 eV

  energy without entropy =      -28.28591172


----------------------------------------- Iteration    3(  10)  ---------------------------------------


   POT+DIJ:  cpu time    0.08: real time    0.08
    HAMIL1:  cpu time    0.00: real time    0.01
    LRDIAG:  cpu time    0.01: real time    0.01
    LRDIIS:  cpu time    0.02: real time    0.02
    LRDIAG:  cpu time    0.01: real time    0.01
    MIXING:  cpu time    0.00: real time    0.00
    --------------------------------------------
      LOOP:  cpu time    0.15: real time    0.16

 Broyden mixing:
  rms(total) = 0.13518E-04    rms(broyden)= 0.13504E-04
  rms(prec ) = 0.21791E-04
  weight for this iteration     100.00

 eigenvalues of (default mixing * dielectric matrix)
  average eigenvalue GAMMA=   1.8357
  3.1960  2.7724  2.4453  1.6707  1.4283  0.9840  1.1185  1.0708

 Free energy of the ion-electron system (eV)
  ---------------------------------------------------
  -1/2 Hartree   DENC   =        -4.62966286
  -V(xc)+E(xc)   XCENC  =         0.95833650
  PAW double counting   =         3.07163364       -3.12057937
  entropy T*S    EENTRO =         0.00000000
  eigenvalues    EBANDS =       -24.56595605
  ---------------------------------------------------
  free energy    TOTEN  =       -28.28622815 eV

  energy without entropy =      -28.28622815


----------------------------------------- Iteration    3(  11)  ---------------------------------------


   POT+DIJ:  cpu time    0.08: real time    0.08
    HAMIL1:  cpu time    0.00: real time    0.01
    LRDIAG:  cpu time    0.01: real time    0.01
    LRDIIS:  cpu time    0.02: real time    0.02
    LRDIAG:  cpu time    0.01: real time    0.01
    MIXING:  cpu time    0.00: real time    0.00
    --------------------------------------------
      LOOP:  cpu time    0.16: real time    0.16

 Broyden mixing:
  rms(total) = 0.38947E-05    rms(broyden)= 0.38927E-05
  rms(prec ) = 0.54864E-05
  weight for this iteration     100.00

 eigenvalues of (default mixing * dielectric matrix)
  average eigenvalue GAMMA=   1.9017
  3.2068  2.8152  2.4436  2.4770  1.6711  1.3826  1.1066  0.9957  1.0165

 Free energy of the ion-electron system (eV)
  ---------------------------------------------------
  -1/2 Hartree   DENC   =        -4.62966902
  -V(xc)+E(xc)   XCENC  =         0.95833291
  PAW double counting   =         3.07170017       -3.12064701
  entropy T*S    EENTRO =         0.00000000
  eigenvalues    EBANDS =       -24.56593454
  ---------------------------------------------------
  free energy    TOTEN  =       -28.28621749 eV

  energy without entropy =      -28.28621749


----------------------------------------- Iteration    3(  12)  ---------------------------------------


   POT+DIJ:  cpu time    0.08: real time    0.08
    HAMIL1:  cpu time    0.00: real time    0.01
    LRDIAG:  cpu time    0.01: real time    0.01
    LRDIIS:  cpu time    0.02: real time    0.02
    LRDIAG:  cpu time    0.01: real time    0.01
    MIXING:  cpu time    0.00: real time    0.00
    --------------------------------------------
      LOOP:  cpu time    0.15: real time    0.15

 Broyden mixing:
  rms(total) = 0.79348E-06    rms(broyden)= 0.79304E-06
  rms(prec ) = 0.12997E-05
  weight for this iteration     100.00

 eigenvalues of (default mixing * dielectric matrix)
  average eigenvalue GAMMA=   1.8408
  3.2065  2.8160  2.5404  2.4512  1.6712  1.2999  1.2999  1.0067  1.0067  1.1093

 Free energy of the ion-electron system (eV)
  ---------------------------------------------------
  -1/2 Hartree   DENC   =        -4.62967086
  -V(xc)+E(xc)   XCENC  =         0.95833296
  PAW double counting   =         3.07160844       -3.12055370
  entropy T*S    EENTRO =         0.00000000
  eigenvalues    EBANDS =       -24.56593539
  ---------------------------------------------------
  free energy    TOTEN  =       -28.28621855 eV

  energy without entropy =      -28.28621855


------------------------ aborting loop because EDIFF is reached ----------------------------------------


 change of polarisation eV/A/(eV/A) component  3 :    -0.077     0.114    50.532
 dielectric tensor                  component  3 :    -0.085     0.126    56.869


--------------------------------------------------------------------------------------------------------


    FORLOC:  cpu time    0.00: real time    0.00
    FORNL :  cpu time    0.09: real time    0.09
    STRESS:  cpu time    0.29: real time    0.29
    FORCOR:  cpu time    0.02: real time    0.02
    FORLOC:  cpu time    0.00: real time    0.00
    FORNL :  cpu time    0.09: real time    0.09
    STRESS:  cpu time    0.34: real time    0.34
    FORCOR:  cpu time    0.02: real time    0.02
    FORNLD:  cpu time    0.01: real time    0.01

 PIEZOELECTRIC TENSOR FIELD DIRECTION 3  (e Angst)
 -----------------------------------------------------------------------------
    -0.00438  0.00023  0.00494           (  0.00004  0.00004  0.00004)
     0.00023  0.00185  0.00605           (  0.00004  0.00001  0.00011)
     0.00494  0.00605 -0.00444           (  0.00004  0.00011 -0.00003)

 PIEZOELECTRIC TENSOR FIELD DIRECTION 3  (C/m^2)
 -----------------------------------------------------------------------------
    -0.00043  0.00002  0.00048
     0.00002  0.00018  0.00059
     0.00048  0.00059 -0.00044


      POSITION         DIRECTION 3           BORN EFFECTIVE CHARGE    (rigid.aug.   ionic)
 -----------------------------------------------------------------------------------------
      5.46893      0.00355      5.46768     0.13051 -0.00722 -5.79603 (  0.21592  4.00000)
      1.37105      1.36518      1.36823     0.03646  0.03451 -5.77901 (  0.21594  4.00000)
      2.73268      2.73573      5.46853    -0.04097  0.02098 -5.79222 (  0.21592  4.00000)
      4.10323      4.10103      1.36559     0.03409 -0.12467 -5.83380 (  0.21590  4.00000)
      2.73353      5.46809      2.73485    -0.12834 -0.03082 -5.74795 (  0.21594  4.00000)
      4.10059      1.36735      4.09893    -0.03218  0.11836 -5.74289 (  0.21594  4.00000)
      5.46985      2.73143      2.73511     0.04808  0.00577 -5.76572 (  0.21593  4.00000)
      1.36393      4.10261      4.10268    -0.02976 -0.04447 -5.75417 (  0.21593  4.00000)
 -----------------------------------------------------------------------------------------
    total drift (improves with k-points):   0.01789 -0.02756-46.21179




--------------------------------------------------------------------------------------------------------


  LATTYP: Found a simple cubic cell.
 ALAT       =     5.4700000000
  
  Lattice vectors:
  
 A1 = (   5.4700000000,   0.0000000000,   0.0000000000)
 A2 = (   0.0000000000,   5.4700000000,   0.0000000000)
 A3 = (   0.0000000000,   0.0000000000,   5.4700000000)


Analysis of symmetry for initial positions (statically):
=====================================================================
 Subroutine PRICEL returns:
 Original cell was already a primitive cell.
 

 Routine SETGRP: Setting up the symmetry group for a 
 simple cubic supercell.


 Subroutine GETGRP returns: Found  1 space group operations
 (whereof  1 operations were pure point group operations)
 out of a pool of 48 trial point group operations.


The static configuration has the point symmetry C_1 .


Analysis of symmetry for dynamics (positions and initial velocities):
=====================================================================
 Subroutine PRICEL returns:
 Original cell was already a primitive cell.
 

 Routine SETGRP: Setting up the symmetry group for a 
 simple cubic supercell.


 Subroutine GETGRP returns: Found  1 space group operations
 (whereof  1 operations were pure point group operations)
 out of a pool of 48 trial point group operations.


The dynamic configuration has the point symmetry C_1 .


 MACROSCOPIC STATIC DIELECTRIC TENSOR (including local field effects in DFT)
 ------------------------------------------------------
          56.846975    -0.021895    -0.085345
          -0.021893    56.842546     0.125521
          -0.085343     0.125521    56.868510
 ------------------------------------------------------



--------------------------------------------------------------------------------------------------------


  LATTYP: Found a simple cubic cell.
 ALAT       =     5.4700000000
  
  Lattice vectors:
  
 A1 = (   5.4700000000,   0.0000000000,   0.0000000000)
 A2 = (   0.0000000000,   5.4700000000,   0.0000000000)
 A3 = (   0.0000000000,   0.0000000000,   5.4700000000)


Analysis of symmetry for initial positions (statically):
=====================================================================
 Subroutine PRICEL returns:
 Original cell was already a primitive cell.
 

 Routine SETGRP: Setting up the symmetry group for a 
 simple cubic supercell.


 Subroutine GETGRP returns: Found  1 space group operations
 (whereof  1 operations were pure point group operations)
 out of a pool of 48 trial point group operations.


The static configuration has the point symmetry C_1 .


Analysis of symmetry for dynamics (positions and initial velocities):
=====================================================================
 Subroutine PRICEL returns:
 Original cell was already a primitive cell.
 

 Routine SETGRP: Setting up the symmetry group for a 
 simple cubic supercell.


 Subroutine GETGRP returns: Found  1 space group operations
 (whereof  1 operations were pure point group operations)
 out of a pool of 48 trial point group operations.


The dynamic configuration has the point symmetry C_1 .
 
 KPOINTS: Automatic mesh                          

Automatic generation of k-mesh.
Space group operators:
 irot       det(A)        alpha          n_x          n_y          n_z        tau_x        tau_y        tau_z
    1     1.000000     0.000001     1.000000     0.000000     0.000000     0.000000     0.000000     0.000000
 
 Subroutine IBZKPT returns following result:
 ===========================================
 
 Found      1 irreducible k-points:
 
 Following reciprocal coordinates:
            Coordinates               Weight
  0.000000  0.000000  0.000000      1.000000
 
 Following cartesian coordinates:
            Coordinates               Weight
  0.000000  0.000000  0.000000      1.000000
 


--------------------------------------------------------------------------------------------------------




 MACROSCOPIC STATIC DIELECTRIC TENSOR (including local field effects in DFT)
 ------------------------------------------------------
          56.846975    -0.021895    -0.085345
          -0.021893    56.842546     0.125521
          -0.085343     0.125521    56.868510
 ------------------------------------------------------


 PIEZOELECTRIC TENSOR  for field in x, y, z        (e  Angst)
          XX          YY          ZZ          XY          YZ          ZX
  --------------------------------------------------------------------------------
  x    -0.00035    -0.00435     0.00480    -0.00141     0.00064    -0.00392
  y     0.00221    -0.00224    -0.00093     0.00271     0.00155    -0.00256
  z    -0.00438     0.00185    -0.00444     0.00023     0.00605     0.00494

 PIEZOELECTRIC TENSOR  for field in x, y, z        (C/m^2)
          XX          YY          ZZ          XY          YZ          ZX
  --------------------------------------------------------------------------------
  x    -0.00003    -0.00043     0.00047    -0.00014     0.00006    -0.00038
  y     0.00022    -0.00022    -0.00009     0.00027     0.00015    -0.00025
  z    -0.00043     0.00018    -0.00044     0.00002     0.00059     0.00048
 
 BORN EFFECTIVE CHARGES (in e, cummulative output)
 -------------------------------------------------
 ion    1
    1    -5.78954     0.08328    -0.01744
    2    -0.05765    -5.78048    -0.02871
    3     0.13051    -0.00722    -5.79603
 ion    2
    1    -5.75980    -0.08435    -0.02126
    2     0.08391    -5.74782    -0.09516
    3     0.03646     0.03451    -5.77901
 ion    3
    1    -5.77758    -0.08662     0.06878
    2     0.05750    -5.78950    -0.04992
    3    -0.04097     0.02098    -5.79222
 ion    4
    1    -5.82802     0.08773    -0.02193
    2    -0.08207    -5.83731     0.04190
    3     0.03409    -0.12467    -5.83380
 ion    5
    1    -5.75182     0.09039     0.01889
    2    -0.05323    -5.75130     0.03852
    3    -0.12834    -0.03082    -5.74795
 ion    6
    1    -5.76089     0.05975     0.02530
    2    -0.05497    -5.73670    -0.04717
    3    -0.03218     0.11836    -5.74289
 ion    7
    1    -5.77858    -0.08961    -0.06196
    2     0.05365    -5.78185     0.02466
    3     0.04808     0.00577    -5.76572
 ion    8
    1    -5.76033    -0.05802     0.02742
    2     0.05536    -5.78106     0.08839
    3    -0.02976    -0.04447    -5.75417


--------------------------------------------------------------------------------------------------------


     LOOP+:  cpu time   19.03: real time   19.44
    4ORBIT:  cpu time    0.00: real time    0.00

 total amount of memory used by VASP on root node    32224. kBytes
========================================================================

   base      :      30000. kBytes
   nonl-proj :        202. kBytes
   fftplans  :        782. kBytes
   grid      :       1198. kBytes
   one-center:         24. kBytes
   wavefun   :         18. kBytes
 
  
  
 General timing and accounting informations for this job:
 ========================================================
  
                  Total CPU time used (sec):       20.107
                            User time (sec):       15.744
                          System time (sec):        4.363
                         Elapsed time (sec):       22.477
  
                   Maximum memory used (kb):       84060.
                   Average memory used (kb):           0.
  
                          Minor page faults:       196598
                          Major page faults:            0
                 Voluntary context switches:         1411
