 vasp.5.3.3 18Dez12 (build Jan  9 2014 12:00:49) complex                        
  
 executed on             LinuxIFC date 2014.01.29  10:07:53
 running on   48 total cores
 distrk:  each k-point on   48 cores,    1 groups
 distr:  one band on NCORES_PER_BAND=   1 cores,   48 groups


--------------------------------------------------------------------------------------------------------


 INCAR:
 POTCAR:    PAW Si                                

 ----------------------------------------------------------------------------- 
|                                                                             |
|           W    W    AA    RRRRR   N    N  II  N    N   GGGG   !!!           |
|           W    W   A  A   R    R  NN   N  II  NN   N  G    G  !!!           |
|           W    W  A    A  R    R  N N  N  II  N N  N  G       !!!           |
|           W WW W  AAAAAA  RRRRR   N  N N  II  N  N N  G  GGG   !            |
|           WW  WW  A    A  R   R   N   NN  II  N   NN  G    G                |
|           W    W  A    A  R    R  N    N  II  N    N   GGGG   !!!           |
|                                                                             |
|      For optimal performance we recommend that you set                      |
|        NPAR = 4 - approx SQRT( number of cores)                             |
|      (number of cores/NPAR must be integer)                                 |
|      This setting will greatly improve the performance of VASP for DFT.     |
|      The default NPAR=number of cores might be grossly inefficient          |
|      on modern multi-core architectures or massively parallel machines.     |
|      Do your own testing.                                                   |
|      Unfortunately you need to use the default for hybrid, GW and RPA       |
|      calculations.                                                          |
|                                                                             |
 ----------------------------------------------------------------------------- 

 POTCAR:    PAW Si                                
   VRHFIN =Si: s2p2                                                             
   LEXCH  = 91                                                                  
   EATOM  =   103.3076 eV,    7.5929 Ry                                         
                                                                                
   TITEL  = PAW Si                                                              
   LULTRA =        F    use ultrasoft PP ?                                      
   IUNSCR =        1    unscreen: 0-lin 1-nonlin 2-no                           
   RPACOR =    1.500    partial core radius                                     
   POMASS =   28.085; ZVAL   =    4.000    mass and valenz                      
   RCORE  =    1.900    outmost cutoff radius                                   
   RWIGS  =    2.480; RWIGS  =    1.312    wigner-seitz radius (au A)           
   ENMAX  =  245.435; ENMIN  =  184.076 eV                                      
   ICORE  =        2    local potential                                         
   LCOR   =        T    correct aug charges                                     
   LPAW   =        T    paw PP                                                  
   EAUG   =  322.069                                                            
   DEXC   =    -.001                                                            
   RMAX   =    2.943    core radius for proj-oper                               
   RAUG   =    1.300    factor for augmentation sphere                          
   RDEP   =    1.993    core radius for depl-charge                             
   QCUT   =   -4.247; QGAM   =    8.494    optimization parameters              
                                                                                
   Description                                                                  
     l     E      TYP  RCUT    TYP  RCUT                                        
     0   .000     23  1.900                                                     
     0   .000     23  1.900                                                     
     1   .000     23  1.900                                                     
     1   .000     23  1.900                                                     
     2   .000      7  1.900                                                     
  local pseudopotential read in
  partial core-charges read in
  atomic valenz-charges read in
  non local Contribution for L=           0  read in
    real space projection operators read in
  non local Contribution for L=           0  read in
    real space projection operators read in
  non local Contribution for L=           1  read in
    real space projection operators read in
  non local Contribution for L=           1  read in
    real space projection operators read in
    PAW grid and wavefunctions read in
 
   number of l-projection  operators is LMAX  =           4
   number of lm-projection operators is LMMAX =           8
 
  PAW Si                                :
 energy of atom  1       EATOM= -103.3076
 kinetic energy error for atom=    0.0109 (will be added to EATOM!!)
 
 
 POSCAR: OUTCAR.0017.-1.out 1.0e-02              
  positions in cartesian coordinates
  No initial velocities read in
 exchange correlation table for  LEXCH =        7
   RHO(1)=    0.500       N(1)  =     2000
   RHO(2)=  100.500       N(2)  =     4000

 VTST: version 3.0c, (01/09/14)

 CHAIN: initializing optimizer
 
 OPT: Using VASP Dynamics algorithm
 CHAIN: Read ICHAIN            0
 
 POSCAR: OUTCAR.0017.-1.out 1.0e-02              
  positions in cartesian coordinates
  No initial velocities read in
 


--------------------------------------------------------------------------------------------------------


 ion  position               nearest neighbor table
   1  0.999  1.000  1.000-   6 2.37   4 2.37   8 2.37   2 2.37
   2  0.250  0.250  0.250-   3 2.37   5 2.37   1 2.37   7 2.37
   3  0.500  0.500  1.000-   2 2.37   4 2.37   6 2.37   8 2.37
   4  0.750  0.750  0.249-   5 2.37   1 2.37   3 2.37   7 2.37
   5  0.500  0.999  0.499-   4 2.37   8 2.37   2 2.37   6 2.37
   6  0.749  0.249  0.750-   1 2.37   3 2.37   5 2.37   7 2.37
   7  0.999  0.500  0.500-   4 2.37   6 2.37   8 2.37   2 2.37
   8  0.250  0.750  0.750-   5 2.37   3 2.37   1 2.37   7 2.37
 
  LATTYP: Found a simple cubic cell.
 ALAT       =     5.4700000000
  
  Lattice vectors:
  
 A1 = (   5.4700000000,   0.0000000000,   0.0000000000)
 A2 = (   0.0000000000,   5.4700000000,   0.0000000000)
 A3 = (   0.0000000000,   0.0000000000,   5.4700000000)


Analysis of symmetry for initial positions (statically):
=====================================================================
 Subroutine PRICEL returns:
 Original cell was already a primitive cell.
 

 Routine SETGRP: Setting up the symmetry group for a 
 simple cubic supercell.


 Subroutine GETGRP returns: Found  1 space group operations
 (whereof  1 operations were pure point group operations)
 out of a pool of 48 trial point group operations.


The static configuration has the point symmetry C_1 .


Analysis of symmetry for dynamics (positions and initial velocities):
=====================================================================
 Subroutine PRICEL returns:
 Original cell was already a primitive cell.
 

 Routine SETGRP: Setting up the symmetry group for a 
 simple cubic supercell.


 Subroutine GETGRP returns: Found  1 space group operations
 (whereof  1 operations were pure point group operations)
 out of a pool of 48 trial point group operations.


The dynamic configuration has the point symmetry C_1 .


 irot  :   1
 --------------------------------------------------------------------
 isymop:   1   0   0
           0   1   0
           0   0   1

 gtrans:     0.0000000     0.0000000     0.0000000

 ptrans:     0.0000000     0.0000000     0.0000000
 rotmap:
 (   1->   1)  (   2->   2)  (   3->   3)  (   4->   4)  (   5->   5) 
 (   6->   6)  (   7->   7)  (   8->   8) 
 
 
 KPOINTS: Automatic mesh                          

Automatic generation of k-mesh.
Space group operators:
 irot       det(A)        alpha          n_x          n_y          n_z        tau_x        tau_y        tau_z
    1     1.000000     0.000001     1.000000     0.000000     0.000000     0.000000     0.000000     0.000000
 
 Subroutine IBZKPT returns following result:
 ===========================================
 
 Found      1 irreducible k-points:
 
 Following reciprocal coordinates:
            Coordinates               Weight
  0.000000  0.000000  0.000000      1.000000
 
 Following cartesian coordinates:
            Coordinates               Weight
  0.000000  0.000000  0.000000      1.000000
 
 
 Subroutine IBZKPT_HF returns following result:
 ==============================================
 
 Found      1 k-points in 1st BZ
 the following      1 k-points will be used (e.g. in the exchange kernel)
 Following reciprocal coordinates:   # in IRBZ
  0.000000  0.000000  0.000000       1 t-inv F


--------------------------------------------------------------------------------------------------------




 Dimension of arrays:
   k-points           NKPTS =      1   k-points in BZ     NKDIM =      1   number of bands    NBANDS=     48
   number of dos      NEDOS =    301   number of ions     NIONS =      8
   non local maximal  LDIM  =      4   non local SUM 2l+1 LMDIM =      8
   total plane-waves  NPLWV =  21952
   max r-space proj   IRMAX =      1   max aug-charges    IRDMAX=  36071
   dimension x,y,z NGX =    28 NGY =   28 NGZ =   28
   dimension x,y,z NGXF=    56 NGYF=   56 NGZF=   56
   support grid    NGXF=   112 NGYF=  112 NGZF=  112
   ions per type =               8
 NGX,Y,Z   is equivalent  to a cutoff of   8.51,  8.51,  8.51 a.u.
 NGXF,Y,Z  is equivalent  to a cutoff of  17.02, 17.02, 17.02 a.u.


 I would recommend the setting:
   dimension x,y,z NGX =    19 NGY =   19 NGZ =   19
 SYSTEM =  NAPTHA04                                
 POSCAR =  OUTCAR.0017.-1.out 1.0e-02              

 Startparameter for this run:
   NWRITE =      3    write-flag & timer
   PREC   = normal    normal or accurate (medium, high low for compatibility)
   ISTART =      0    job   : 0-new  1-cont  2-samecut
   ICHARG =      2    charge: 1-file 2-atom 10-const
   ISPIN  =      1    spin polarized calculation?
   LNONCOLLINEAR =      F non collinear calculations
   LSORBIT =      F    spin-orbit coupling
   INIWAV =      1    electr: 0-lowe 1-rand  2-diag
   LASPH  =      F    aspherical Exc in radial PAW
   METAGGA=      F    non-selfconsistent MetaGGA calc.

 Electronic Relaxation 1
   ENCUT  =  200.0 eV  14.70 Ry    3.83 a.u.   6.31  6.31  6.31*2*pi/ulx,y,z
   ENINI  =  200.0     initial cutoff
   ENAUG  =  322.1 eV  augmentation charge cutoff
   NELM   =     60;   NELMIN=  2; NELMDL= -5     # of ELM steps 
   EDIFF  = 0.1E-07   stopping-criterion for ELM
   LREAL  =      F    real-space projection
   NLSPLINE    = F    spline interpolate recip. space projectors
   LCOMPAT=      F    compatible to vasp.4.4
   GGA_COMPAT  = T    GGA compatible to vasp.4.4-vasp.4.6
   LMAXPAW     = -100 max onsite density
   LMAXMIX     =    2 max onsite mixed and CHGCAR
   VOSKOWN=      0    Vosko Wilk Nusair interpolation
   ROPT   =    0.00000
 Ionic relaxation
   EDIFFG = 0.1E-06   stopping-criterion for IOM
   NSW    =      0    number of steps for IOM
   NBLOCK =      1;   KBLOCK =      1    inner block; outer block 
   IBRION =     -1    ionic relax: 0-MD 1-quasi-New 2-CG
   NFREE  =      0    steps in history (QN), initial steepest desc. (CG)
   ISIF   =      2    stress and relaxation
   IWAVPR =     10    prediction:  0-non 1-charg 2-wave 3-comb
   ISYM   =      2    0-nonsym 1-usesym 2-fastsym
   LCORR  =      T    Harris-Foulkes like correction to forces

   POTIM  = 0.5000    time-step for ionic-motion
   TEIN   =    0.0    initial temperature
   TEBEG  =    0.0;   TEEND  =   0.0 temperature during run
   SMASS  =  -3.00    Nose mass-parameter (am)
   estimated Nose-frequenzy (Omega)   =  0.10E-29 period in steps =****** mass=  -0.684E-27a.u.
   SCALEE = 1.0000    scale energy and forces
   NPACO  =    256;   APACO  = 16.0  distance and # of slots for P.C.
   PSTRESS=    0.0 pullay stress

  Mass of Ions in am
   POMASS =  28.09
  Ionic Valenz
   ZVAL   =   4.00
  Atomic Wigner-Seitz radii
   RWIGS  =  -1.00
  virtual crystal weights 
   VCA    =   1.00
   NELECT =      32.0000    total number of electrons
   NUPDOWN=      -1.0000    fix difference up-down

 DOS related values:
   EMIN   =  10.00;   EMAX   =-10.00  energy-range for DOS
   EFERMI =   0.00
   ISMEAR =     0;   SIGMA  =   0.02  broadening in eV -4-tet -1-fermi 0-gaus

 Electronic relaxation 2 (details)
   IALGO  =     68    algorithm
   LDIAG  =      T    sub-space diagonalisation (order eigenvalues)
   LSUBROT=      T    optimize rotation matrix (better conditioning)
   TURBO    =      0    0=normal 1=particle mesh
   IRESTART =      0    0=no restart 2=restart with 2 vectors
   NREBOOT  =      0    no. of reboots
   NMIN     =      0    reboot dimension
   EREF     =   0.00    reference energy to select bands
   IMIX   =      4    mixing-type and parameters
     AMIX     =   0.40;   BMIX     =  1.00
     AMIX_MAG =   1.60;   BMIX_MAG =  1.00
     AMIN     =   0.10
     WC   =   100.;   INIMIX=   1;  MIXPRE=   1;  MAXMIX= -45

 Intra band minimization:
   WEIMIN = 0.0000     energy-eigenvalue tresh-hold
   EBREAK =  0.52E-10  absolut break condition
   DEPER  =   0.30     relativ break condition  

   TIME   =   0.40     timestep for ELM

  volume/ion in A,a.u.               =      20.46       138.06
  Fermi-wavevector in a.u.,A,eV,Ry     =   0.950176  1.795573 12.283814  0.902835
  Thomas-Fermi vector in A             =   2.078528
 
 Write flags
   LWAVE  =      F    write WAVECAR
   LCHARG =      F    write CHGCAR
   LVTOT  =      F    write LOCPOT, total local potential
   LVHAR  =      F    write LOCPOT, Hartree potential only
   LELF   =      F    write electronic localiz. function (ELF)
   LORBIT =      0    0 simple, 1 ext, 2 COOP (PROOUT)


 Dipole corrections
   LMONO  =      F    monopole corrections only (constant potential shift)
   LDIPOL =      F    correct potential (dipole corrections)
   IDIPOL =      0    1-x, 2-y, 3-z, 4-all directions 
   EPSILON=  1.0000000 bulk dielectric constant

 Exchange correlation treatment:
   GGA     =    --    GGA type
   LEXCH   =     7    internal setting for exchange type
   VOSKOWN=      0    Vosko Wilk Nusair interpolation
   LHFCALC =     F    Hartree Fock is set to
   LHFONE  =     F    Hartree Fock one center treatment
   AEXX    =    0.0000 exact exchange contribution

 Linear response parameters
   LEPSILON=     T    determine dielectric tensor
   LRPA    =     F    only Hartree local field effects (RPA)
   LNABLA  =     F    use nabla operator in PAW spheres
   LVEL    =     F    velocity operator in full k-point grid
   LINTERFAST=   F  fast interpolation
   KINTER  =     0    interpolate to denser k-point grid
   CSHIFT  =0.1000    complex shift for real part using Kramers Kronig
   OMEGAMAX=  -1.0    maximum frequency
   DEG_THRESHOLD= 0.2000000E-02 threshold for treating states as degnerate
   RTIME   =    0.100 relaxation time in fs

 Orbital magnetization related:
   ORBITALMAG=     F  switch on orbital magnetization
   LCHIMAG   =     F  perturbation theory with respect to B field
   DQ        =  0.001000  dq finite difference perturbation B field



--------------------------------------------------------------------------------------------------------


 Static calculation
 charge density and potential will be updated during run
 non-spin polarized calculation
 RMM-DIIS sequential band-by-band and
  variant of blocked Davidson during initial phase
 perform sub-space diagonalisation
    before iterative eigenvector-optimisation
 modified Broyden-mixing scheme, WC =      100.0
 initial mixing is a Kerker type mixing with AMIX =  0.4000 and BMIX =      1.0000
 Hartree-type preconditioning will be used
 using additional bands           32
 reciprocal scheme for non local part
 use partial core corrections
 calculate Harris-corrections to forces 
   (improved forces if not selfconsistent)
 use gradient corrections 
 use of overlap-Matrix (Vanderbilt PP)
 Gauss-broadening in eV      SIGMA  =   0.02


--------------------------------------------------------------------------------------------------------


  energy-cutoff  :      200.00
  volume of cell :      163.67
      direct lattice vectors                 reciprocal lattice vectors
     5.470000000  0.000000000  0.000000000     0.182815356  0.000000000  0.000000000
     0.000000000  5.470000000  0.000000000     0.000000000  0.182815356  0.000000000
     0.000000000  0.000000000  5.470000000     0.000000000  0.000000000  0.182815356

  length of vectors
     5.470000000  5.470000000  5.470000000     0.182815356  0.182815356  0.182815356


 
 k-points in units of 2pi/SCALE and weight: Automatic mesh                          
   0.00000000  0.00000000  0.00000000       1.000
 
 k-points in reciprocal lattice and weights: Automatic mesh                          
   0.00000000  0.00000000  0.00000000       1.000
 
 position of ions in fractional coordinates (direct lattice) 
   0.99940481  0.99999901  0.99971559
   0.24999901  0.24971559  0.24974302
   0.49971559  0.49974302  0.99993891
   0.74974302  0.74993891  0.24936849
   0.49993891  0.99936849  0.49934420
   0.74936849  0.24934420  0.75003266
   0.99934420  0.50003266  0.50014334
   0.25003266  0.75014334  0.74992922
 
 position of ions in cartesian coordinates  (Angst):
   5.46674432  5.46999460  5.46844427
   1.36749460  1.36594427  1.36609432
   2.73344427  2.73359432  5.46966583
   4.10109432  4.10216583  1.36404566
   2.73466583  5.46654566  2.73141279
   4.09904566  1.36391279  4.10267866
   5.46641279  2.73517866  2.73578407
   1.36767866  4.10328407  4.10211282
 


--------------------------------------------------------------------------------------------------------


 k-point  1 :   0.0000 0.0000 0.0000  plane waves:    1021

 maximum and minimum number of plane-waves per node :      1021     1021

 maximum number of plane-waves:      1021
 maximum index in each direction: 
   IXMAX=    6   IYMAX=    6   IZMAX=    6
   IXMIN=   -6   IYMIN=   -6   IZMIN=   -6

 NGX is ok and might be reduce to  26
 NGY is ok and might be reduce to  26
 NGZ is ok and might be reduce to  26

 serial   3D FFT for wavefunctions
 parallel 3D FFT for charge:
    minimum data exchange during FFTs selected (reduces bandwidth)


 total amount of memory used by VASP on root node    32224. kBytes
========================================================================

   base      :      30000. kBytes
   nonl-proj :        202. kBytes
   fftplans  :        782. kBytes
   grid      :       1198. kBytes
   one-center:         24. kBytes
   wavefun   :         18. kBytes
 
 Broyden mixing: mesh for mixing (old mesh)
   NGX = 13   NGY = 13   NGZ = 13
  (NGX  = 56   NGY  = 56   NGZ  = 56)
  gives a total of   2197 points

 initial charge density was supplied:
 charge density of overlapping atoms calculated
 number of electron      32.0000000 magnetization 
 keeping initial charge density in first step


--------------------------------------------------------------------------------------------------------


 Maximum index for augmentation-charges         1788 (set IRDMAX)


--------------------------------------------------------------------------------------------------------


 First call to EWALD:  gamma=   0.324
 Maximum number of real-space cells 3x 3x 3
 Maximum number of reciprocal cells 3x 3x 3

 FEWALD executed in parallel
    FEWALD:  cpu time    0.00: real time    0.00


----------------------------------------- Iteration    1(   1)  ---------------------------------------


    POTLOK:  cpu time    0.03: real time    0.03
    SETDIJ:  cpu time    0.02: real time    0.02
     EDDAV:  cpu time    0.39: real time    0.40
       DOS:  cpu time    0.00: real time    0.00
    --------------------------------------------
      LOOP:  cpu time    0.45: real time    0.46

 eigenvalue-minimisations  :    96
 total energy-change (2. order) :-0.1014051E+02  (-0.7956147E+03)
 number of electron      32.0000000 magnetization 
 augmentation part       32.0000000 magnetization 

 Free energy of the ion-electron system (eV)
  ---------------------------------------------------
  alpha Z        PSCENC =        12.68944982
  Ewald energy   TEWEN  =      -907.56762785
  -1/2 Hartree   DENC   =       -45.63607356
  -exchange  EXHF       =         0.00000000
  -V(xc)+E(xc)   XCENC  =       -76.79672889
  PAW double counting   =       265.93453375     -123.69690146
  entropy T*S    EENTRO =        -0.00013518
  eigenvalues    EBANDS =        38.55899213
  atomic energy  EATOM  =       826.37398168
  ---------------------------------------------------
  free energy    TOTEN  =       -10.14050956 eV

  energy without entropy =      -10.14037438  energy(sigma->0) =      -10.14044197


--------------------------------------------------------------------------------------------------------




 average (electrostatic) potential at core
  the test charge radii are     0.9892
  (the norm of the test charge is              1.0000)
       1 -84.3530       2 -84.3477       3 -84.3525       4 -84.3544       5 -84.3534
       6 -84.3515       7 -84.3436       8 -84.3489
 
 
 
 E-fermi :   6.6091     XC(G=0):  -9.5533     alpha+bet :-11.7379


 k-point   1 :       0.0000    0.0000    0.0000
  band No.  band energies     occupation 
      1      -6.5897      2.00000
      2      -2.4168      2.00000
      3      -2.2483      2.00000
      4      -2.1131      2.00000
      5      -2.0333      2.00000
      6      -1.8767      2.00000
      7      -1.6788      2.00000
      8       2.7425      2.00000
      9       2.8479      2.00000
     10       2.9949      2.00000
     11       3.1605      2.00000
     12       3.3449      2.00000
     13       4.0821      2.00000
     14       6.1382      2.00000
     15       6.3613      2.00000
     16       6.5638      1.99862
     17       6.6543      0.00138
     18       6.8038      0.00000
     19       6.9024      0.00000
     20       7.1747      0.00000
     21       7.3810      0.00000
     22       8.0495      0.00000
     23       8.9801      0.00000
     24       9.3730      0.00000
     25      10.4491      0.00000
     26      11.4498      0.00000
     27      13.5068      0.00000
     28      14.7771      0.00000
     29      16.5580      0.00000
     30      16.8943      0.00000
     31      17.3653      0.00000
     32      17.5866      0.00000
     33      17.9224      0.00000
     34      18.1212      0.00000
     35      18.4987      0.00000
     36      18.8765      0.00000
     37      19.3754      0.00000
     38      19.5178      0.00000
     39      19.8619      0.00000
     40      20.2483      0.00000
     41      21.0941      0.00000
     42      21.6795      0.00000
     43      22.1799      0.00000
     44      22.7569      0.00000
     45      23.8972      0.00000
     46      24.3986      0.00000
     47      24.8257      0.00000
     48      25.8348      0.00000


--------------------------------------------------------------------------------------------------------


 soft charge-density along one line, spin component           1
         0         1         2         3         4         5         6         7         8         9
 total charge-density along one line
 
 pseudopotential strength for first ion, spin component:           1
 18.662   0.000   0.000   0.000   0.000   0.000   0.000   0.000
  0.000   0.006   0.000   0.000   0.000   0.000   0.000   0.000
  0.000   0.000   4.216   0.000   0.000  -0.004   0.000   0.000
  0.000   0.000   0.000   4.216   0.000   0.000  -0.004   0.000
  0.000   0.000   0.000   0.000   4.216   0.000   0.000  -0.004
  0.000   0.000  -0.004   0.000   0.000   0.005   0.000   0.000
  0.000   0.000   0.000  -0.004   0.000   0.000   0.005   0.000
  0.000   0.000   0.000   0.000  -0.004   0.000   0.000   0.005
 total augmentation occupancy for first ion, spin component:           1
  2.000   0.000   0.000   0.000   0.000   0.000   0.000   0.000
  0.000   0.000   0.000   0.000   0.000   0.000   0.000   0.000
  0.000   0.000   0.667   0.000   0.000   0.000   0.000   0.000
  0.000   0.000   0.000   0.667   0.000   0.000   0.000   0.000
  0.000   0.000   0.000   0.000   0.667   0.000   0.000   0.000
  0.000   0.000   0.000   0.000   0.000   0.000   0.000   0.000
  0.000   0.000   0.000   0.000   0.000   0.000   0.000   0.000
  0.000   0.000   0.000   0.000   0.000   0.000   0.000   0.000


----------------------------------------- Iteration    1(   2)  ---------------------------------------


     EDDAV:  cpu time    0.97: real time    0.97
       DOS:  cpu time    0.00: real time    0.00
    --------------------------------------------
      LOOP:  cpu time    0.97: real time    0.97

 eigenvalue-minimisations  :   144
 total energy-change (2. order) :-0.2431001E+02  (-0.2430869E+02)
 number of electron      32.0000000 magnetization 
 augmentation part       32.0000000 magnetization 

 Free energy of the ion-electron system (eV)
  ---------------------------------------------------
  alpha Z        PSCENC =        12.68944982
  Ewald energy   TEWEN  =      -907.56762785
  -1/2 Hartree   DENC   =       -45.63607356
  -exchange  EXHF       =         0.00000000
  -V(xc)+E(xc)   XCENC  =       -76.79672889
  PAW double counting   =       265.93453375     -123.69690146
  entropy T*S    EENTRO =         0.00000000
  eigenvalues    EBANDS =        14.24885010
  atomic energy  EATOM  =       826.37398168
  ---------------------------------------------------
  free energy    TOTEN  =       -34.45051641 eV

  energy without entropy =      -34.45051641  energy(sigma->0) =      -34.45051641


--------------------------------------------------------------------------------------------------------




 average (electrostatic) potential at core
  the test charge radii are     0.9892
  (the norm of the test charge is              1.0000)
       1 -84.3530       2 -84.3477       3 -84.3525       4 -84.3544       5 -84.3534
       6 -84.3515       7 -84.3436       8 -84.3489
 
 
 
 E-fermi :   5.2508     XC(G=0):  -9.5533     alpha+bet :-11.7379


 k-point   1 :       0.0000    0.0000    0.0000
  band No.  band energies     occupation 
      1      -6.6371      2.00000
      2      -2.6383      2.00000
      3      -2.6353      2.00000
      4      -2.6327      2.00000
      5      -2.6259      2.00000
      6      -2.6247      2.00000
      7      -2.6180      2.00000
      8       2.3752      2.00000
      9       2.3776      2.00000
     10       2.3801      2.00000
     11       2.3833      2.00000
     12       2.3845      2.00000
     13       2.3955      2.00000
     14       5.0697      2.00000
     15       5.0799      2.00000
     16       5.0907      2.00000
     17       6.1435      0.00000
     18       6.1497      0.00000
     19       6.1559      0.00000
     20       6.1613      0.00000
     21       6.1630      0.00000
     22       6.1664      0.00000
     23       7.8519      0.00000
     24       7.8563      0.00000
     25       7.8634      0.00000
     26       8.1266      0.00000
     27      13.2006      0.00000
     28      13.2620      0.00000
     29      13.2699      0.00000
     30      15.1005      0.00000
     31      15.1338      0.00000
     32      15.1716      0.00000
     33      15.2496      0.00000
     34      15.3107      0.00000
     35      15.6371      0.00000
     36      16.3764      0.00000
     37      16.4278      0.00000
     38      16.4565      0.00000
     39      16.5296      0.00000
     40      16.7216      0.00000
     41      16.7480      0.00000
     42      16.7691      0.00000
     43      16.8686      0.00000
     44      17.2320      0.00000
     45      17.9122      0.00000
     46      17.9491      0.00000
     47      17.9917      0.00000
     48      18.0202      0.00000


--------------------------------------------------------------------------------------------------------


 soft charge-density along one line, spin component           1
         0         1         2         3         4         5         6         7         8         9
 total charge-density along one line
 
 pseudopotential strength for first ion, spin component:           1
 18.662   0.000   0.000   0.000   0.000   0.000   0.000   0.000
  0.000   0.006   0.000   0.000   0.000   0.000   0.000   0.000
  0.000   0.000   4.216   0.000   0.000  -0.004   0.000   0.000
  0.000   0.000   0.000   4.216   0.000   0.000  -0.004   0.000
  0.000   0.000   0.000   0.000   4.216   0.000   0.000  -0.004
  0.000   0.000  -0.004   0.000   0.000   0.005   0.000   0.000
  0.000   0.000   0.000  -0.004   0.000   0.000   0.005   0.000
  0.000   0.000   0.000   0.000  -0.004   0.000   0.000   0.005
 total augmentation occupancy for first ion, spin component:           1
  2.000   0.000   0.000   0.000   0.000   0.000   0.000   0.000
  0.000   0.000   0.000   0.000   0.000   0.000   0.000   0.000
  0.000   0.000   0.667   0.000   0.000   0.000   0.000   0.000
  0.000   0.000   0.000   0.667   0.000   0.000   0.000   0.000
  0.000   0.000   0.000   0.000   0.667   0.000   0.000   0.000
  0.000   0.000   0.000   0.000   0.000   0.000   0.000   0.000
  0.000   0.000   0.000   0.000   0.000   0.000   0.000   0.000
  0.000   0.000   0.000   0.000   0.000   0.000   0.000   0.000


----------------------------------------- Iteration    1(   3)  ---------------------------------------


     EDDAV:  cpu time    0.38: real time    0.38
       DOS:  cpu time    0.00: real time    0.00
    --------------------------------------------
      LOOP:  cpu time    0.39: real time    0.39

 eigenvalue-minimisations  :    96
 total energy-change (2. order) :-0.1673431E+00  (-0.1673431E+00)
 number of electron      32.0000000 magnetization 
 augmentation part       32.0000000 magnetization 

 Free energy of the ion-electron system (eV)
  ---------------------------------------------------
  alpha Z        PSCENC =        12.68944982
  Ewald energy   TEWEN  =      -907.56762785
  -1/2 Hartree   DENC   =       -45.63607356
  -exchange  EXHF       =         0.00000000
  -V(xc)+E(xc)   XCENC  =       -76.79672889
  PAW double counting   =       265.93453375     -123.69690146
  entropy T*S    EENTRO =         0.00000000
  eigenvalues    EBANDS =        14.08150696
  atomic energy  EATOM  =       826.37398168
  ---------------------------------------------------
  free energy    TOTEN  =       -34.61785955 eV

  energy without entropy =      -34.61785955  energy(sigma->0) =      -34.61785955


--------------------------------------------------------------------------------------------------------




 average (electrostatic) potential at core
  the test charge radii are     0.9892
  (the norm of the test charge is              1.0000)
       1 -84.3530       2 -84.3477       3 -84.3525       4 -84.3544       5 -84.3534
       6 -84.3515       7 -84.3436       8 -84.3489
 
 
 
 E-fermi :   5.2114     XC(G=0):  -9.5533     alpha+bet :-11.7379


 k-point   1 :       0.0000    0.0000    0.0000
  band No.  band energies     occupation 
      1      -6.6372      2.00000
      2      -2.6405      2.00000
      3      -2.6378      2.00000
      4      -2.6350      2.00000
      5      -2.6286      2.00000
      6      -2.6267      2.00000
      7      -2.6196      2.00000
      8       2.3720      2.00000
      9       2.3750      2.00000
     10       2.3780      2.00000
     11       2.3784      2.00000
     12       2.3798      2.00000
     13       2.3828      2.00000
     14       5.0614      2.00000
     15       5.0666      2.00000
     16       5.0720      2.00000
     17       6.1412      0.00000
     18       6.1474      0.00000
     19       6.1526      0.00000
     20       6.1579      0.00000
     21       6.1586      0.00000
     22       6.1615      0.00000
     23       7.8466      0.00000
     24       7.8495      0.00000
     25       7.8525      0.00000
     26       8.1178      0.00000
     27      13.1845      0.00000
     28      13.1867      0.00000
     29      13.2693      0.00000
     30      15.0851      0.00000
     31      15.0881      0.00000
     32      15.0932      0.00000
     33      15.1115      0.00000
     34      15.1264      0.00000
     35      15.1815      0.00000
     36      16.3136      0.00000
     37      16.3370      0.00000
     38      16.3431      0.00000
     39      16.3595      0.00000
     40      16.4310      0.00000
     41      16.4885      0.00000
     42      16.7125      0.00000
     43      16.7170      0.00000
     44      16.8161      0.00000
     45      17.8830      0.00000
     46      17.8933      0.00000
     47      17.9174      0.00000
     48      17.9386      0.00000


--------------------------------------------------------------------------------------------------------


 soft charge-density along one line, spin component           1
         0         1         2         3         4         5         6         7         8         9
 total charge-density along one line
 
 pseudopotential strength for first ion, spin component:           1
 18.662   0.000   0.000   0.000   0.000   0.000   0.000   0.000
  0.000   0.006   0.000   0.000   0.000   0.000   0.000   0.000
  0.000   0.000   4.216   0.000   0.000  -0.004   0.000   0.000
  0.000   0.000   0.000   4.216   0.000   0.000  -0.004   0.000
  0.000   0.000   0.000   0.000   4.216   0.000   0.000  -0.004
  0.000   0.000  -0.004   0.000   0.000   0.005   0.000   0.000
  0.000   0.000   0.000  -0.004   0.000   0.000   0.005   0.000
  0.000   0.000   0.000   0.000  -0.004   0.000   0.000   0.005
 total augmentation occupancy for first ion, spin component:           1
  2.000   0.000   0.000   0.000   0.000   0.000   0.000   0.000
  0.000   0.000   0.000   0.000   0.000   0.000   0.000   0.000
  0.000   0.000   0.667   0.000   0.000   0.000   0.000   0.000
  0.000   0.000   0.000   0.667   0.000   0.000   0.000   0.000
  0.000   0.000   0.000   0.000   0.667   0.000   0.000   0.000
  0.000   0.000   0.000   0.000   0.000   0.000   0.000   0.000
  0.000   0.000   0.000   0.000   0.000   0.000   0.000   0.000
  0.000   0.000   0.000   0.000   0.000   0.000   0.000   0.000


----------------------------------------- Iteration    1(   4)  ---------------------------------------


     EDDAV:  cpu time    1.99: real time    1.99
       DOS:  cpu time    0.00: real time    0.00
    --------------------------------------------
      LOOP:  cpu time    2.00: real time    2.00

 eigenvalue-minimisations  :   192
 total energy-change (2. order) :-0.3545211E-03  (-0.3545211E-03)
 number of electron      32.0000000 magnetization 
 augmentation part       32.0000000 magnetization 

 Free energy of the ion-electron system (eV)
  ---------------------------------------------------
  alpha Z        PSCENC =        12.68944982
  Ewald energy   TEWEN  =      -907.56762785
  -1/2 Hartree   DENC   =       -45.63607356
  -exchange  EXHF       =         0.00000000
  -V(xc)+E(xc)   XCENC  =       -76.79672889
  PAW double counting   =       265.93453375     -123.69690146
  entropy T*S    EENTRO =         0.00000000
  eigenvalues    EBANDS =        14.08115243
  atomic energy  EATOM  =       826.37398168
  ---------------------------------------------------
  free energy    TOTEN  =       -34.61821407 eV

  energy without entropy =      -34.61821407  energy(sigma->0) =      -34.61821407


--------------------------------------------------------------------------------------------------------




 average (electrostatic) potential at core
  the test charge radii are     0.9892
  (the norm of the test charge is              1.0000)
       1 -84.3530       2 -84.3477       3 -84.3525       4 -84.3544       5 -84.3534
       6 -84.3515       7 -84.3436       8 -84.3489
 
 
 
 E-fermi :   5.2002     XC(G=0):  -9.5533     alpha+bet :-11.7379


 k-point   1 :       0.0000    0.0000    0.0000
  band No.  band energies     occupation 
      1      -6.6372      2.00000
      2      -2.6405      2.00000
      3      -2.6378      2.00000
      4      -2.6350      2.00000
      5      -2.6286      2.00000
      6      -2.6267      2.00000
      7      -2.6196      2.00000
      8       2.3720      2.00000
      9       2.3749      2.00000
     10       2.3780      2.00000
     11       2.3784      2.00000
     12       2.3798      2.00000
     13       2.3828      2.00000
     14       5.0613      2.00000
     15       5.0666      2.00000
     16       5.0719      2.00000
     17       6.1412      0.00000
     18       6.1474      0.00000
     19       6.1526      0.00000
     20       6.1579      0.00000
     21       6.1586      0.00000
     22       6.1615      0.00000
     23       7.8465      0.00000
     24       7.8495      0.00000
     25       7.8524      0.00000
     26       8.1178      0.00000
     27      13.1838      0.00000
     28      13.1838      0.00000
     29      13.2693      0.00000
     30      15.0785      0.00000
     31      15.0819      0.00000
     32      15.0830      0.00000
     33      15.0849      0.00000
     34      15.0880      0.00000
     35      15.0922      0.00000
     36      16.2962      0.00000
     37      16.3017      0.00000
     38      16.3077      0.00000
     39      16.3152      0.00000
     40      16.3184      0.00000
     41      16.3235      0.00000
     42      16.7013      0.00000
     43      16.7044      0.00000
     44      16.7076      0.00000
     45      17.8745      0.00000
     46      17.8828      0.00000
     47      17.8864      0.00000
     48      17.8920      0.00000


--------------------------------------------------------------------------------------------------------


 soft charge-density along one line, spin component           1
         0         1         2         3         4         5         6         7         8         9
 total charge-density along one line
 
 pseudopotential strength for first ion, spin component:           1
 18.662   0.000   0.000   0.000   0.000   0.000   0.000   0.000
  0.000   0.006   0.000   0.000   0.000   0.000   0.000   0.000
  0.000   0.000   4.216   0.000   0.000  -0.004   0.000   0.000
  0.000   0.000   0.000   4.216   0.000   0.000  -0.004   0.000
  0.000   0.000   0.000   0.000   4.216   0.000   0.000  -0.004
  0.000   0.000  -0.004   0.000   0.000   0.005   0.000   0.000
  0.000   0.000   0.000  -0.004   0.000   0.000   0.005   0.000
  0.000   0.000   0.000   0.000  -0.004   0.000   0.000   0.005
 total augmentation occupancy for first ion, spin component:           1
  2.000   0.000   0.000   0.000   0.000   0.000   0.000   0.000
  0.000   0.000   0.000   0.000   0.000   0.000   0.000   0.000
  0.000   0.000   0.667   0.000   0.000   0.000   0.000   0.000
  0.000   0.000   0.000   0.667   0.000   0.000   0.000   0.000
  0.000   0.000   0.000   0.000   0.667   0.000   0.000   0.000
  0.000   0.000   0.000   0.000   0.000   0.000   0.000   0.000
  0.000   0.000   0.000   0.000   0.000   0.000   0.000   0.000
  0.000   0.000   0.000   0.000   0.000   0.000   0.000   0.000


----------------------------------------- Iteration    1(   5)  ---------------------------------------


     EDDAV:  cpu time    0.38: real time    0.38
       DOS:  cpu time    0.00: real time    0.00
    CHARGE:  cpu time    0.02: real time    0.02
    MIXING:  cpu time    0.00: real time    0.00
    --------------------------------------------
      LOOP:  cpu time    0.42: real time    0.42

 eigenvalue-minimisations  :    96
 total energy-change (2. order) :-0.3062837E-08  (-0.3062836E-08)
 number of electron      31.9999999 magnetization 
 augmentation part       -1.8053324 magnetization 

 Broyden mixing:
  rms(total) = 0.79306E+00    rms(broyden)= 0.79301E+00
  rms(prec ) = 0.15229E+01
  weight for this iteration     100.00

 Free energy of the ion-electron system (eV)
  ---------------------------------------------------
  alpha Z        PSCENC =        12.68944982
  Ewald energy   TEWEN  =      -907.56762785
  -1/2 Hartree   DENC   =       -45.63607356
  -exchange  EXHF       =         0.00000000
  -V(xc)+E(xc)   XCENC  =       -76.79672889
  PAW double counting   =       265.93453375     -123.69690146
  entropy T*S    EENTRO =         0.00000000
  eigenvalues    EBANDS =        14.08115243
  atomic energy  EATOM  =       826.37398168
  ---------------------------------------------------
  free energy    TOTEN  =       -34.61821408 eV

  energy without entropy =      -34.61821408  energy(sigma->0) =      -34.61821408


--------------------------------------------------------------------------------------------------------




 average (electrostatic) potential at core
  the test charge radii are     0.9892
  (the norm of the test charge is              1.0000)
       1 -84.3530       2 -84.3477       3 -84.3525       4 -84.3544       5 -84.3534
       6 -84.3515       7 -84.3436       8 -84.3489
 
 
 
 E-fermi :   5.1962     XC(G=0):  -9.5533     alpha+bet :-11.7379


 k-point   1 :       0.0000    0.0000    0.0000
  band No.  band energies     occupation 
      1      -6.6372      2.00000
      2      -2.6405      2.00000
      3      -2.6378      2.00000
      4      -2.6350      2.00000
      5      -2.6286      2.00000
      6      -2.6267      2.00000
      7      -2.6196      2.00000
      8       2.3720      2.00000
      9       2.3749      2.00000
     10       2.3780      2.00000
     11       2.3784      2.00000
     12       2.3798      2.00000
     13       2.3828      2.00000
     14       5.0613      2.00000
     15       5.0666      2.00000
     16       5.0719      2.00000
     17       6.1412      0.00000
     18       6.1474      0.00000
     19       6.1526      0.00000
     20       6.1579      0.00000
     21       6.1586      0.00000
     22       6.1615      0.00000
     23       7.8465      0.00000
     24       7.8495      0.00000
     25       7.8524      0.00000
     26       8.1178      0.00000
     27      13.1838      0.00000
     28      13.1838      0.00000
     29      13.2693      0.00000
     30      15.0785      0.00000
     31      15.0819      0.00000
     32      15.0830      0.00000
     33      15.0848      0.00000
     34      15.0880      0.00000
     35      15.0921      0.00000
     36      16.2960      0.00000
     37      16.3013      0.00000
     38      16.3076      0.00000
     39      16.3145      0.00000
     40      16.3182      0.00000
     41      16.3233      0.00000
     42      16.7011      0.00000
     43      16.7043      0.00000
     44      16.7075      0.00000
     45      17.8729      0.00000
     46      17.8781      0.00000
     47      17.8813      0.00000
     48      17.8837      0.00000


--------------------------------------------------------------------------------------------------------


 soft charge-density along one line, spin component           1
         0         1         2         3         4         5         6         7         8         9
 total charge-density along one line
 
 pseudopotential strength for first ion, spin component:           1
 18.662   0.000   0.000   0.000   0.000   0.000   0.000   0.000
  0.000   0.006   0.000   0.000   0.000   0.000   0.000   0.000
  0.000   0.000   4.216   0.000   0.000  -0.004   0.000   0.000
  0.000   0.000   0.000   4.216   0.000   0.000  -0.004   0.000
  0.000   0.000   0.000   0.000   4.216   0.000   0.000  -0.004
  0.000   0.000  -0.004   0.000   0.000   0.005   0.000   0.000
  0.000   0.000   0.000  -0.004   0.000   0.000   0.005   0.000
  0.000   0.000   0.000   0.000  -0.004   0.000   0.000   0.005
 total augmentation occupancy for first ion, spin component:           1
  1.380  -1.053   0.000   0.000  -0.002   0.000   0.000   0.001
 -1.053   0.920   0.000   0.000   0.001   0.000   0.000  -0.002
  0.000   0.000   1.164  -0.001   0.000  -0.758   0.002   0.000
  0.000   0.000  -0.001   1.164   0.000   0.002  -0.758   0.000
 -0.002   0.001   0.000   0.000   1.167   0.000   0.000  -0.761
  0.000   0.000  -0.758   0.002   0.000   0.570  -0.002   0.000
  0.000   0.000   0.002  -0.758   0.000  -0.002   0.570   0.000
  0.001  -0.002   0.000   0.000  -0.761   0.000   0.000   0.572


----------------------------------------- Iteration    1(   6)  ---------------------------------------


    POTLOK:  cpu time    0.02: real time    0.02
    SETDIJ:  cpu time    0.02: real time    0.02
    EDDIAG:  cpu time    0.03: real time    0.03
  RMM-DIIS:  cpu time    0.03: real time    0.03
    ORTHCH:  cpu time    0.00: real time    0.01
       DOS:  cpu time    0.00: real time    0.00
    CHARGE:  cpu time    0.02: real time    0.02
    MIXING:  cpu time    0.00: real time    0.00
    --------------------------------------------
      LOOP:  cpu time    0.13: real time    0.14

 eigenvalue-minimisations  :    96
 total energy-change (2. order) : 0.1001703E+01  (-0.3198313E-01)
 number of electron      31.9999999 magnetization 
 augmentation part       -1.7684030 magnetization 

 Broyden mixing:
  rms(total) = 0.47400E+00    rms(broyden)= 0.47399E+00
  rms(prec ) = 0.91066E+00
  weight for this iteration     100.00

 eigenvalues of (default mixing * dielectric matrix)
  average eigenvalue GAMMA=   2.4573
  2.4573

 Free energy of the ion-electron system (eV)
  ---------------------------------------------------
  alpha Z        PSCENC =        12.68944982
  Ewald energy   TEWEN  =      -907.56762785
  -1/2 Hartree   DENC   =       -54.68265002
  -exchange  EXHF       =         0.00000000
  -V(xc)+E(xc)   XCENC  =       -75.44941400
  PAW double counting   =       286.06059256     -144.35889901
  entropy T*S    EENTRO =         0.00000000
  eigenvalues    EBANDS =        23.31805538
  atomic energy  EATOM  =       826.37398168
  ---------------------------------------------------
  free energy    TOTEN  =       -33.61651145 eV

  energy without entropy =      -33.61651145  energy(sigma->0) =      -33.61651145


--------------------------------------------------------------------------------------------------------




 average (electrostatic) potential at core
  the test charge radii are     0.9892
  (the norm of the test charge is              1.0000)
       1 -83.8340       2 -83.8314       3 -83.8338       4 -83.8346       5 -83.8342
       6 -83.8332       7 -83.8293       8 -83.8320
 
 
 
 E-fermi :   5.5484     XC(G=0):  -9.4504     alpha+bet :-11.7379


 k-point   1 :       0.0000    0.0000    0.0000
  band No.  band energies     occupation 
      1      -6.3787      2.00000
      2      -2.3403      2.00000
      3      -2.3381      2.00000
      4      -2.3355      2.00000
      5      -2.3300      2.00000
      6      -2.3284      2.00000
      7      -2.3224      2.00000
      8       2.6336      2.00000
      9       2.6362      2.00000
     10       2.6390      2.00000
     11       2.6394      2.00000
     12       2.6407      2.00000
     13       2.6434      2.00000
     14       5.3949      2.00000
     15       5.4000      2.00000
     16       5.4052      2.00000
     17       6.2570      0.00000
     18       6.2626      0.00000
     19       6.2671      0.00000
     20       6.2718      0.00000
     21       6.2723      0.00000
     22       6.2750      0.00000
     23       8.0539      0.00000
     24       8.0569      0.00000
     25       8.0599      0.00000
     26       8.4862      0.00000
     27      13.3050      0.00000
     28      13.3569      0.00000
     29      13.3569      0.00000
     30      15.3749      0.00000
     31      15.3782      0.00000
     32      15.3793      0.00000
     33      15.3810      0.00000
     34      15.3841      0.00000
     35      15.3879      0.00000
     36      16.5331      0.00000
     37      16.5380      0.00000
     38      16.5437      0.00000
     39      16.5500      0.00000
     40      16.5532      0.00000
     41      16.5578      0.00000
     42      16.7457      0.00000
     43      16.7489      0.00000
     44      16.7521      0.00000
     45      18.1625      0.00000
     46      18.1667      0.00000
     47      18.1696      0.00000
     48      18.1731      0.00000


--------------------------------------------------------------------------------------------------------


 soft charge-density along one line, spin component           1
         0         1         2         3         4         5         6         7         8         9
 total charge-density along one line
 
 pseudopotential strength for first ion, spin component:           1
 18.635  -0.001   0.000   0.000   0.000   0.000   0.000   0.000
 -0.001   0.006   0.000   0.000   0.000   0.000   0.000   0.000
  0.000   0.000   4.221   0.000   0.000  -0.004   0.000   0.000
  0.000   0.000   0.000   4.221   0.000   0.000  -0.004   0.000
  0.000   0.000   0.000   0.000   4.221   0.000   0.000  -0.004
  0.000   0.000  -0.004   0.000   0.000   0.005   0.000   0.000
  0.000   0.000   0.000  -0.004   0.000   0.000   0.005   0.000
  0.000   0.000   0.000   0.000  -0.004   0.000   0.000   0.005
 total augmentation occupancy for first ion, spin component:           1
  1.351  -1.091   0.000   0.000  -0.002   0.000   0.000   0.002
 -1.091   0.999   0.000   0.000   0.000   0.000   0.000  -0.002
  0.000   0.000   1.146  -0.001   0.000  -0.782   0.002   0.000
  0.000   0.000  -0.001   1.146   0.000   0.002  -0.782   0.000
 -0.002   0.000   0.000   0.000   1.149   0.000   0.000  -0.784
  0.000   0.000  -0.782   0.002   0.000   0.608  -0.002   0.000
  0.000   0.000   0.002  -0.782   0.000  -0.002   0.608   0.001
  0.002  -0.002   0.000   0.000  -0.784   0.000   0.001   0.610


----------------------------------------- Iteration    1(   7)  ---------------------------------------


    POTLOK:  cpu time    0.02: real time    0.02
    SETDIJ:  cpu time    0.02: real time    0.02
    EDDIAG:  cpu time    0.02: real time    0.02
  RMM-DIIS:  cpu time    0.02: real time    0.02
    ORTHCH:  cpu time    0.01: real time    0.01
       DOS:  cpu time    0.00: real time    0.00
    CHARGE:  cpu time    0.02: real time    0.02
    MIXING:  cpu time    0.00: real time    0.00
    --------------------------------------------
      LOOP:  cpu time    0.11: real time    0.12

 eigenvalue-minimisations  :    96
 total energy-change (2. order) : 0.4246681E+00  (-0.7389111E-01)
 number of electron      31.9999999 magnetization 
 augmentation part       -1.7214445 magnetization 

 Broyden mixing:
  rms(total) = 0.46245E-01    rms(broyden)= 0.46235E-01
  rms(prec ) = 0.78443E-01
  weight for this iteration     100.00

 eigenvalues of (default mixing * dielectric matrix)
  average eigenvalue GAMMA=   2.5303
  2.5303  2.5303

 Free energy of the ion-electron system (eV)
  ---------------------------------------------------
  alpha Z        PSCENC =        12.68944982
  Ewald energy   TEWEN  =      -907.56762785
  -1/2 Hartree   DENC   =       -70.51405269
  -exchange  EXHF       =         0.00000000
  -V(xc)+E(xc)   XCENC  =       -73.00920977
  PAW double counting   =       313.72488452     -172.73690436
  entropy T*S    EENTRO =         0.00000000
  eigenvalues    EBANDS =        37.84763526
  atomic energy  EATOM  =       826.37398168
  ---------------------------------------------------
  free energy    TOTEN  =       -33.19184339 eV

  energy without entropy =      -33.19184339  energy(sigma->0) =      -33.19184339


--------------------------------------------------------------------------------------------------------




 average (electrostatic) potential at core
  the test charge radii are     0.9892
  (the norm of the test charge is              1.0000)
       1 -83.1459       2 -83.1444       3 -83.1462       4 -83.1471       5 -83.1459
       6 -83.1461       7 -83.1431       8 -83.1454
 
 
 
 E-fermi :   6.0966     XC(G=0):  -9.2018     alpha+bet :-11.7379


 k-point   1 :       0.0000    0.0000    0.0000
  band No.  band energies     occupation 
      1      -5.9621      2.00000
      2      -1.8727      2.00000
      3      -1.8710      2.00000
      4      -1.8687      2.00000
      5      -1.8637      2.00000
      6      -1.8625      2.00000
      7      -1.8573      2.00000
      8       3.0466      2.00000
      9       3.0488      2.00000
     10       3.0515      2.00000
     11       3.0519      2.00000
     12       3.0533      2.00000
     13       3.0558      2.00000
     14       5.9196      2.00000
     15       5.9246      2.00000
     16       5.9297      2.00000
     17       6.5170      0.00000
     18       6.5218      0.00000
     19       6.5256      0.00000
     20       6.5293      0.00000
     21       6.5300      0.00000
     22       6.5324      0.00000
     23       8.3789      0.00000
     24       8.3820      0.00000
     25       8.3851      0.00000
     26       9.0452      0.00000
     27      13.6014      0.00000
     28      13.6204      0.00000
     29      13.6204      0.00000
     30      15.8255      0.00000
     31      15.8285      0.00000
     32      15.8295      0.00000
     33      15.8309      0.00000
     34      15.8337      0.00000
     35      15.8372      0.00000
     36      16.8995      0.00000
     37      16.9034      0.00000
     38      16.9068      0.00000
     39      16.9539      0.00000
     40      16.9582      0.00000
     41      16.9633      0.00000
     42      16.9687      0.00000
     43      16.9718      0.00000
     44      16.9764      0.00000
     45      18.6608      0.00000
     46      18.6650      0.00000
     47      18.6715      0.00000
     48      18.6748      0.00000


--------------------------------------------------------------------------------------------------------


 soft charge-density along one line, spin component           1
         0         1         2         3         4         5         6         7         8         9
 total charge-density along one line
 
 pseudopotential strength for first ion, spin component:           1
 18.596  -0.001   0.000   0.000   0.000   0.000   0.000   0.000
 -0.001   0.006   0.000   0.000   0.000   0.000   0.000   0.000
  0.000   0.000   4.227   0.000   0.000  -0.005   0.000   0.000
  0.000   0.000   0.000   4.227   0.000   0.000  -0.005   0.000
  0.000   0.000   0.000   0.000   4.227   0.000   0.000  -0.005
  0.000   0.000  -0.005   0.000   0.000   0.005   0.000   0.000
  0.000   0.000   0.000  -0.005   0.000   0.000   0.005   0.000
  0.000   0.000   0.000   0.000  -0.005   0.000   0.000   0.005
 total augmentation occupancy for first ion, spin component:           1
  1.315  -1.113  -0.001   0.000  -0.002   0.000   0.000   0.002
 -1.113   1.059  -0.001   0.000   0.000   0.000   0.000  -0.002
 -0.001  -0.001   1.121  -0.001   0.000  -0.804   0.002   0.000
  0.000   0.000  -0.001   1.121  -0.001   0.002  -0.805   0.000
 -0.002   0.000   0.000  -0.001   1.124   0.000   0.000  -0.807
  0.000   0.000  -0.804   0.002   0.000   0.652  -0.002   0.000
  0.000   0.000   0.002  -0.805   0.000  -0.002   0.651   0.001
  0.002  -0.002   0.000   0.000  -0.807   0.000   0.001   0.654


----------------------------------------- Iteration    1(   8)  ---------------------------------------


    POTLOK:  cpu time    0.02: real time    0.02
    SETDIJ:  cpu time    0.02: real time    0.02
    EDDIAG:  cpu time    0.02: real time    0.02
  RMM-DIIS:  cpu time    0.03: real time    0.04
    ORTHCH:  cpu time    0.01: real time    0.01
       DOS:  cpu time    0.00: real time    0.00
    CHARGE:  cpu time    0.02: real time    0.02
    MIXING:  cpu time    0.00: real time    0.00
    --------------------------------------------
      LOOP:  cpu time    0.13: real time    0.13

 eigenvalue-minimisations  :    96
 total energy-change (2. order) :-0.3198710E-01  (-0.2163676E-02)
 number of electron      31.9999999 magnetization 
 augmentation part       -1.7275426 magnetization 

 Broyden mixing:
  rms(total) = 0.74810E-02    rms(broyden)= 0.74805E-02
  rms(prec ) = 0.17938E-01
  weight for this iteration     100.00

 eigenvalues of (default mixing * dielectric matrix)
  average eigenvalue GAMMA=   2.1214
  1.2742  2.8652  2.2246

 Free energy of the ion-electron system (eV)
  ---------------------------------------------------
  alpha Z        PSCENC =        12.68944982
  Ewald energy   TEWEN  =      -907.56762785
  -1/2 Hartree   DENC   =       -70.39886635
  -exchange  EXHF       =         0.00000000
  -V(xc)+E(xc)   XCENC  =       -72.96565382
  PAW double counting   =       307.36055100     -166.18770378
  entropy T*S    EENTRO =         0.00000000
  eigenvalues    EBANDS =        37.47203881
  atomic energy  EATOM  =       826.37398168
  ---------------------------------------------------
  free energy    TOTEN  =       -33.22383050 eV

  energy without entropy =      -33.22383050  energy(sigma->0) =      -33.22383050


--------------------------------------------------------------------------------------------------------




 average (electrostatic) potential at core
  the test charge radii are     0.9892
  (the norm of the test charge is              1.0000)
       1 -83.2502       2 -83.2462       3 -83.2500       4 -83.2515       5 -83.2504
       6 -83.2493       7 -83.2430       8 -83.2474
 
 
 
 E-fermi :   6.0356     XC(G=0):  -9.1504     alpha+bet :-11.7379


 k-point   1 :       0.0000    0.0000    0.0000
  band No.  band energies     occupation 
      1      -5.9631      2.00000
      2      -1.8850      2.00000
      3      -1.8830      2.00000
      4      -1.8805      2.00000
      5      -1.8751      2.00000
      6      -1.8737      2.00000
      7      -1.8680      2.00000
      8       3.0347      2.00000
      9       3.0371      2.00000
     10       3.0399      2.00000
     11       3.0405      2.00000
     12       3.0420      2.00000
     13       3.0446      2.00000
     14       5.9034      2.00000
     15       5.9085      2.00000
     16       5.9136      2.00000
     17       6.5674      0.00000
     18       6.5724      0.00000
     19       6.5764      0.00000
     20       6.5803      0.00000
     21       6.5811      0.00000
     22       6.5837      0.00000
     23       8.3683      0.00000
     24       8.3713      0.00000
     25       8.3744      0.00000
     26       9.0381      0.00000
     27      13.6064      0.00000
     28      13.6065      0.00000
     29      13.7785      0.00000
     30      15.8110      0.00000
     31      15.8140      0.00000
     32      15.8149      0.00000
     33      15.8161      0.00000
     34      15.8188      0.00000
     35      15.8225      0.00000
     36      16.9360      0.00000
     37      16.9403      0.00000
     38      16.9435      0.00000
     39      16.9603      0.00000
     40      16.9646      0.00000
     41      16.9697      0.00000
     42      16.9752      0.00000
     43      16.9787      0.00000
     44      16.9835      0.00000
     45      18.6969      0.00000
     46      18.7027      0.00000
     47      18.7100      0.00000
     48      18.7128      0.00000


--------------------------------------------------------------------------------------------------------


 soft charge-density along one line, spin component           1
         0         1         2         3         4         5         6         7         8         9
 total charge-density along one line
 
 pseudopotential strength for first ion, spin component:           1
 18.599  -0.001   0.000   0.000   0.000   0.000   0.000   0.000
 -0.001   0.006   0.000   0.000   0.000   0.000   0.000   0.000
  0.000   0.000   4.224   0.000   0.000  -0.005   0.000   0.000
  0.000   0.000   0.000   4.224   0.000   0.000  -0.005   0.000
  0.000   0.000   0.000   0.000   4.224   0.000   0.000  -0.005
  0.000   0.000  -0.005   0.000   0.000   0.005   0.000   0.000
  0.000   0.000   0.000  -0.005   0.000   0.000   0.005   0.000
  0.000   0.000   0.000   0.000  -0.005   0.000   0.000   0.005
 total augmentation occupancy for first ion, spin component:           1
  1.320  -1.093  -0.001   0.000  -0.002   0.000   0.000   0.002
 -1.093   1.022  -0.001   0.000   0.000   0.000   0.000  -0.002
 -0.001  -0.001   1.122  -0.001   0.000  -0.800   0.002   0.000
  0.000   0.000  -0.001   1.122   0.000   0.002  -0.801   0.000
 -0.002   0.000   0.000   0.000   1.125   0.000   0.000  -0.803
  0.000   0.000  -0.800   0.002   0.000   0.647  -0.002   0.000
  0.000   0.000   0.002  -0.801   0.000  -0.002   0.647   0.000
  0.002  -0.002   0.000   0.000  -0.803   0.000   0.000   0.649


----------------------------------------- Iteration    1(   9)  ---------------------------------------


    POTLOK:  cpu time    0.02: real time    0.02
    SETDIJ:  cpu time    0.02: real time    0.02
    EDDIAG:  cpu time    0.02: real time    0.02
  RMM-DIIS:  cpu time    0.06: real time    0.06
    ORTHCH:  cpu time    0.01: real time    0.01
       DOS:  cpu time    0.00: real time    0.00
    CHARGE:  cpu time    0.02: real time    0.02
    MIXING:  cpu time    0.00: real time    0.00
    --------------------------------------------
      LOOP:  cpu time    0.15: real time    0.15

 eigenvalue-minimisations  :   105
 total energy-change (2. order) :-0.1129951E-02  (-0.1263919E-03)
 number of electron      31.9999999 magnetization 
 augmentation part       -1.7274605 magnetization 

 Broyden mixing:
  rms(total) = 0.41711E-02    rms(broyden)= 0.41710E-02
  rms(prec ) = 0.68357E-02
  weight for this iteration     100.00

 eigenvalues of (default mixing * dielectric matrix)
  average eigenvalue GAMMA=   2.3142
  0.9904  3.2818  2.6984  2.2860

 Free energy of the ion-electron system (eV)
  ---------------------------------------------------
  alpha Z        PSCENC =        12.68944982
  Ewald energy   TEWEN  =      -907.56762785
  -1/2 Hartree   DENC   =       -70.79568253
  -exchange  EXHF       =         0.00000000
  -V(xc)+E(xc)   XCENC  =       -72.90641313
  PAW double counting   =       307.71350676     -166.55112459
  entropy T*S    EENTRO =         0.00000000
  eigenvalues    EBANDS =        37.81894941
  atomic energy  EATOM  =       826.37398168
  ---------------------------------------------------
  free energy    TOTEN  =       -33.22496045 eV

  energy without entropy =      -33.22496045  energy(sigma->0) =      -33.22496045


--------------------------------------------------------------------------------------------------------




 average (electrostatic) potential at core
  the test charge radii are     0.9892
  (the norm of the test charge is              1.0000)
       1 -83.2356       2 -83.2326       3 -83.2353       4 -83.2362       5 -83.2358
       6 -83.2346       7 -83.2301       8 -83.2332
 
 
 
 E-fermi :   6.0503     XC(G=0):  -9.1362     alpha+bet :-11.7379


 k-point   1 :       0.0000    0.0000    0.0000
  band No.  band energies     occupation 
      1      -5.9519      2.00000
      2      -1.8736      2.00000
      3      -1.8716      2.00000
      4      -1.8692      2.00000
      5      -1.8640      2.00000
      6      -1.8627      2.00000
      7      -1.8572      2.00000
      8       3.0447      2.00000
      9       3.0471      2.00000
     10       3.0498      2.00000
     11       3.0503      2.00000
     12       3.0518      2.00000
     13       3.0543      2.00000
     14       5.9156      2.00000
     15       5.9206      2.00000
     16       5.9257      2.00000
     17       6.5814      0.00000
     18       6.5864      0.00000
     19       6.5904      0.00000
     20       6.5945      0.00000
     21       6.5952      0.00000
     22       6.5978      0.00000
     23       8.3760      0.00000
     24       8.3790      0.00000
     25       8.3820      0.00000
     26       9.0526      0.00000
     27      13.6117      0.00000
     28      13.6117      0.00000
     29      13.8106      0.00000
     30      15.8214      0.00000
     31      15.8245      0.00000
     32      15.8254      0.00000
     33      15.8266      0.00000
     34      15.8295      0.00000
     35      15.8331      0.00000
     36      16.9460      0.00000
     37      16.9503      0.00000
     38      16.9535      0.00000
     39      16.9725      0.00000
     40      16.9768      0.00000
     41      16.9818      0.00000
     42      16.9873      0.00000
     43      16.9907      0.00000
     44      16.9955      0.00000
     45      18.7148      0.00000
     46      18.7208      0.00000
     47      18.7286      0.00000
     48      18.7312      0.00000


--------------------------------------------------------------------------------------------------------


 soft charge-density along one line, spin component           1
         0         1         2         3         4         5         6         7         8         9
 total charge-density along one line
 
 pseudopotential strength for first ion, spin component:           1
 18.598  -0.001   0.000   0.000   0.000   0.000   0.000   0.000
 -0.001   0.006   0.000   0.000   0.000   0.000   0.000   0.000
  0.000   0.000   4.224   0.000   0.000  -0.005   0.000   0.000
  0.000   0.000   0.000   4.224   0.000   0.000  -0.005   0.000
  0.000   0.000   0.000   0.000   4.224   0.000   0.000  -0.005
  0.000   0.000  -0.005   0.000   0.000   0.005   0.000   0.000
  0.000   0.000   0.000  -0.005   0.000   0.000   0.005   0.000
  0.000   0.000   0.000   0.000  -0.005   0.000   0.000   0.005
 total augmentation occupancy for first ion, spin component:           1
  1.320  -1.088  -0.001   0.000  -0.002   0.000   0.000   0.002
 -1.088   1.013  -0.001   0.000   0.000   0.000   0.000  -0.002
 -0.001  -0.001   1.122  -0.001   0.000  -0.800   0.002   0.000
  0.000   0.000  -0.001   1.122   0.000   0.002  -0.800   0.000
 -0.002   0.000   0.000   0.000   1.125   0.000   0.000  -0.803
  0.000   0.000  -0.800   0.002   0.000   0.647  -0.002   0.000
  0.000   0.000   0.002  -0.800   0.000  -0.002   0.647   0.000
  0.002  -0.002   0.000   0.000  -0.803   0.000   0.000   0.649


----------------------------------------- Iteration    1(  10)  ---------------------------------------


    POTLOK:  cpu time    0.02: real time    0.02
    SETDIJ:  cpu time    0.02: real time    0.02
    EDDIAG:  cpu time    0.02: real time    0.02
  RMM-DIIS:  cpu time    0.03: real time    0.03
    ORTHCH:  cpu time    0.01: real time    0.01
       DOS:  cpu time    0.00: real time    0.00
    CHARGE:  cpu time    0.02: real time    0.02
    MIXING:  cpu time    0.00: real time    0.00
    --------------------------------------------
      LOOP:  cpu time    0.12: real time    0.12

 eigenvalue-minimisations  :   104
 total energy-change (2. order) :-0.1836875E-03  (-0.2544588E-04)
 number of electron      31.9999999 magnetization 
 augmentation part       -1.7273256 magnetization 

 Broyden mixing:
  rms(total) = 0.54748E-03    rms(broyden)= 0.54710E-03
  rms(prec ) = 0.10473E-02
  weight for this iteration     100.00

 eigenvalues of (default mixing * dielectric matrix)
  average eigenvalue GAMMA=   2.0343
  3.0952  2.6285  2.1720  0.9766  1.2994

 Free energy of the ion-electron system (eV)
  ---------------------------------------------------
  alpha Z        PSCENC =        12.68944982
  Ewald energy   TEWEN  =      -907.56762785
  -1/2 Hartree   DENC   =       -70.84960614
  -exchange  EXHF       =         0.00000000
  -V(xc)+E(xc)   XCENC  =       -72.90961203
  PAW double counting   =       307.80851654     -166.65264999
  entropy T*S    EENTRO =         0.00000000
  eigenvalues    EBANDS =        37.88240385
  atomic energy  EATOM  =       826.37398168
  ---------------------------------------------------
  free energy    TOTEN  =       -33.22514413 eV

  energy without entropy =      -33.22514413  energy(sigma->0) =      -33.22514413


--------------------------------------------------------------------------------------------------------




 average (electrostatic) potential at core
  the test charge radii are     0.9892
  (the norm of the test charge is              1.0000)
       1 -83.2263       2 -83.2241       3 -83.2261       4 -83.2267       5 -83.2265
       6 -83.2256       7 -83.2222       8 -83.2245
 
 
 
 E-fermi :   6.0550     XC(G=0):  -9.1305     alpha+bet :-11.7379


 k-point   1 :       0.0000    0.0000    0.0000
  band No.  band energies     occupation 
      1      -5.9494      2.00000
      2      -1.8714      2.00000
      3      -1.8694      2.00000
      4      -1.8671      2.00000
      5      -1.8620      2.00000
      6      -1.8607      2.00000
      7      -1.8553      2.00000
      8       3.0465      2.00000
      9       3.0489      2.00000
     10       3.0515      2.00000
     11       3.0520      2.00000
     12       3.0534      2.00000
     13       3.0559      2.00000
     14       5.9178      2.00000
     15       5.9228      2.00000
     16       5.9278      2.00000
     17       6.5868      0.00000
     18       6.5918      0.00000
     19       6.5959      0.00000
     20       6.5999      0.00000
     21       6.6007      0.00000
     22       6.6033      0.00000
     23       8.3769      0.00000
     24       8.3800      0.00000
     25       8.3830      0.00000
     26       9.0564      0.00000
     27      13.6117      0.00000
     28      13.6117      0.00000
     29      13.8270      0.00000
     30      15.8231      0.00000
     31      15.8262      0.00000
     32      15.8272      0.00000
     33      15.8286      0.00000
     34      15.8315      0.00000
     35      15.8350      0.00000
     36      16.9501      0.00000
     37      16.9544      0.00000
     38      16.9575      0.00000
     39      16.9753      0.00000
     40      16.9796      0.00000
     41      16.9846      0.00000
     42      16.9900      0.00000
     43      16.9934      0.00000
     44      16.9982      0.00000
     45      18.7225      0.00000
     46      18.7280      0.00000
     47      18.7355      0.00000
     48      18.7383      0.00000


--------------------------------------------------------------------------------------------------------


 soft charge-density along one line, spin component           1
         0         1         2         3         4         5         6         7         8         9
 total charge-density along one line
 
 pseudopotential strength for first ion, spin component:           1
 18.597  -0.001   0.000   0.000   0.000   0.000   0.000   0.000
 -0.001   0.006   0.000   0.000   0.000   0.000   0.000   0.000
  0.000   0.000   4.224   0.000   0.000  -0.005   0.000   0.000
  0.000   0.000   0.000   4.224   0.000   0.000  -0.005   0.000
  0.000   0.000   0.000   0.000   4.224   0.000   0.000  -0.005
  0.000   0.000  -0.005   0.000   0.000   0.005   0.000   0.000
  0.000   0.000   0.000  -0.005   0.000   0.000   0.005   0.000
  0.000   0.000   0.000   0.000  -0.005   0.000   0.000   0.005
 total augmentation occupancy for first ion, spin component:           1
  1.320  -1.088  -0.001   0.000  -0.002   0.000   0.000   0.002
 -1.088   1.014  -0.001   0.000   0.000   0.000   0.000  -0.002
 -0.001  -0.001   1.122  -0.001   0.000  -0.801   0.002   0.000
  0.000   0.000  -0.001   1.122   0.000   0.002  -0.801   0.000
 -0.002   0.000   0.000   0.000   1.125   0.000   0.000  -0.803
  0.000   0.000  -0.801   0.002   0.000   0.648  -0.002   0.000
  0.000   0.000   0.002  -0.801   0.000  -0.002   0.648   0.000
  0.002  -0.002   0.000   0.000  -0.803   0.000   0.000   0.650


----------------------------------------- Iteration    1(  11)  ---------------------------------------


    POTLOK:  cpu time    0.02: real time    0.02
    SETDIJ:  cpu time    0.02: real time    0.02
    EDDIAG:  cpu time    0.02: real time    0.02
  RMM-DIIS:  cpu time    0.04: real time    0.05
    ORTHCH:  cpu time    0.01: real time    0.01
       DOS:  cpu time    0.00: real time    0.00
    CHARGE:  cpu time    0.02: real time    0.02
    MIXING:  cpu time    0.00: real time    0.00
    --------------------------------------------
      LOOP:  cpu time    0.14: real time    0.14

 eigenvalue-minimisations  :   113
 total energy-change (2. order) : 0.4122400E-05  (-0.4126864E-06)
 number of electron      31.9999999 magnetization 
 augmentation part       -1.7274339 magnetization 

 Broyden mixing:
  rms(total) = 0.14999E-03    rms(broyden)= 0.14994E-03
  rms(prec ) = 0.28752E-03
  weight for this iteration     100.00

 eigenvalues of (default mixing * dielectric matrix)
  average eigenvalue GAMMA=   1.9783
  3.2073  2.7031  2.1159  1.9065  0.9686  0.9686

 Free energy of the ion-electron system (eV)
  ---------------------------------------------------
  alpha Z        PSCENC =        12.68944982
  Ewald energy   TEWEN  =      -907.56762785
  -1/2 Hartree   DENC   =       -70.82844678
  -exchange  EXHF       =         0.00000000
  -V(xc)+E(xc)   XCENC  =       -72.91084998
  PAW double counting   =       307.73541460     -166.57663051
  entropy T*S    EENTRO =         0.00000000
  eigenvalues    EBANDS =        37.85956902
  atomic energy  EATOM  =       826.37398168
  ---------------------------------------------------
  free energy    TOTEN  =       -33.22514001 eV

  energy without entropy =      -33.22514001  energy(sigma->0) =      -33.22514001


--------------------------------------------------------------------------------------------------------




 average (electrostatic) potential at core
  the test charge radii are     0.9892
  (the norm of the test charge is              1.0000)
       1 -83.2290       2 -83.2262       3 -83.2287       4 -83.2296       5 -83.2291
       6 -83.2281       7 -83.2240       8 -83.2268
 
 
 
 E-fermi :   6.0546     XC(G=0):  -9.1314     alpha+bet :-11.7379


 k-point   1 :       0.0000    0.0000    0.0000
  band No.  band energies     occupation 
      1      -5.9501      2.00000
      2      -1.8722      2.00000
      3      -1.8702      2.00000
      4      -1.8679      2.00000
      5      -1.8627      2.00000
      6      -1.8614      2.00000
      7      -1.8559      2.00000
      8       3.0458      2.00000
      9       3.0482      2.00000
     10       3.0508      2.00000
     11       3.0514      2.00000
     12       3.0528      2.00000
     13       3.0553      2.00000
     14       5.9170      2.00000
     15       5.9220      2.00000
     16       5.9270      2.00000
     17       6.5860      0.00000
     18       6.5910      0.00000
     19       6.5950      0.00000
     20       6.5991      0.00000
     21       6.5998      0.00000
     22       6.6024      0.00000
     23       8.3765      0.00000
     24       8.3795      0.00000
     25       8.3825      0.00000
     26       9.0553      0.00000
     27      13.6114      0.00000
     28      13.6115      0.00000
     29      13.8250      0.00000
     30      15.8225      0.00000
     31      15.8256      0.00000
     32      15.8265      0.00000
     33      15.8278      0.00000
     34      15.8307      0.00000
     35      15.8342      0.00000
     36      16.9495      0.00000
     37      16.9538      0.00000
     38      16.9570      0.00000
     39      16.9745      0.00000
     40      16.9789      0.00000
     41      16.9838      0.00000
     42      16.9893      0.00000
     43      16.9927      0.00000
     44      16.9975      0.00000
     45      18.7241      0.00000
     46      18.7283      0.00000
     47      18.7350      0.00000
     48      18.7383      0.00000


--------------------------------------------------------------------------------------------------------


 soft charge-density along one line, spin component           1
         0         1         2         3         4         5         6         7         8         9
 total charge-density along one line
 
 pseudopotential strength for first ion, spin component:           1
 18.598  -0.001   0.000   0.000   0.000   0.000   0.000   0.000
 -0.001   0.006   0.000   0.000   0.000   0.000   0.000   0.000
  0.000   0.000   4.224   0.000   0.000  -0.005   0.000   0.000
  0.000   0.000   0.000   4.224   0.000   0.000  -0.005   0.000
  0.000   0.000   0.000   0.000   4.224   0.000   0.000  -0.005
  0.000   0.000  -0.005   0.000   0.000   0.005   0.000   0.000
  0.000   0.000   0.000  -0.005   0.000   0.000   0.005   0.000
  0.000   0.000   0.000   0.000  -0.005   0.000   0.000   0.005
 total augmentation occupancy for first ion, spin component:           1
  1.320  -1.087  -0.001   0.000  -0.002   0.000   0.000   0.002
 -1.087   1.013  -0.001   0.000   0.000   0.000   0.000  -0.002
 -0.001  -0.001   1.122  -0.001   0.000  -0.801   0.002   0.000
  0.000   0.000  -0.001   1.122   0.000   0.002  -0.801   0.000
 -0.002   0.000   0.000   0.000   1.125   0.000   0.000  -0.803
  0.000   0.000  -0.801   0.002   0.000   0.648  -0.002   0.000
  0.000   0.000   0.002  -0.801   0.000  -0.002   0.648   0.000
  0.002  -0.002   0.000   0.000  -0.803   0.000   0.000   0.650


----------------------------------------- Iteration    1(  12)  ---------------------------------------


    POTLOK:  cpu time    0.02: real time    0.02
    SETDIJ:  cpu time    0.02: real time    0.02
    EDDIAG:  cpu time    0.02: real time    0.02
  RMM-DIIS:  cpu time    0.03: real time    0.03
    ORTHCH:  cpu time    0.01: real time    0.01
       DOS:  cpu time    0.00: real time    0.00
    CHARGE:  cpu time    0.02: real time    0.02
    MIXING:  cpu time    0.00: real time    0.00
    --------------------------------------------
      LOOP:  cpu time    0.12: real time    0.12

 eigenvalue-minimisations  :   127
 total energy-change (2. order) :-0.4814093E-06  (-0.4567755E-07)
 number of electron      31.9999999 magnetization 
 augmentation part       -1.7274248 magnetization 

 Broyden mixing:
  rms(total) = 0.58606E-04    rms(broyden)= 0.58578E-04
  rms(prec ) = 0.84963E-04
  weight for this iteration     100.00

 eigenvalues of (default mixing * dielectric matrix)
  average eigenvalue GAMMA=   1.9928
  3.1899  2.7321  2.4670  2.0572  1.5473  0.9947  0.9614

 Free energy of the ion-electron system (eV)
  ---------------------------------------------------
  alpha Z        PSCENC =        12.68944982
  Ewald energy   TEWEN  =      -907.56762785
  -1/2 Hartree   DENC   =       -70.83229778
  -exchange  EXHF       =         0.00000000
  -V(xc)+E(xc)   XCENC  =       -72.91080877
  PAW double counting   =       307.74054076     -166.58185799
  entropy T*S    EENTRO =         0.00000000
  eigenvalues    EBANDS =        37.86347966
  atomic energy  EATOM  =       826.37398168
  ---------------------------------------------------
  free energy    TOTEN  =       -33.22514049 eV

  energy without entropy =      -33.22514049  energy(sigma->0) =      -33.22514049


--------------------------------------------------------------------------------------------------------




 average (electrostatic) potential at core
  the test charge radii are     0.9892
  (the norm of the test charge is              1.0000)
       1 -83.2286       2 -83.2257       3 -83.2283       4 -83.2292       5 -83.2287
       6 -83.2277       7 -83.2234       8 -83.2264
 
 
 
 E-fermi :   6.0552     XC(G=0):  -9.1311     alpha+bet :-11.7379


 k-point   1 :       0.0000    0.0000    0.0000
  band No.  band energies     occupation 
      1      -5.9500      2.00000
      2      -1.8721      2.00000
      3      -1.8701      2.00000
      4      -1.8678      2.00000
      5      -1.8625      2.00000
      6      -1.8612      2.00000
      7      -1.8557      2.00000
      8       3.0459      2.00000
      9       3.0482      2.00000
     10       3.0509      2.00000
     11       3.0515      2.00000
     12       3.0529      2.00000
[...]
    LRDIIS:  cpu time    0.02: real time    0.02
    LRDIAG:  cpu time    0.01: real time    0.01
    MIXING:  cpu time    0.00: real time    0.00
    --------------------------------------------
      LOOP:  cpu time    0.15: real time    0.15

 Broyden mixing:
  rms(total) = 0.12452E-01    rms(broyden)= 0.12450E-01
  rms(prec ) = 0.21588E-01
  weight for this iteration     100.00

 eigenvalues of (default mixing * dielectric matrix)
  average eigenvalue GAMMA=   2.0541
  2.5854  1.5606  2.0163

 Free energy of the ion-electron system (eV)
  ---------------------------------------------------
  -1/2 Hartree   DENC   =        -4.58216858
  -V(xc)+E(xc)   XCENC  =         0.93861694
  PAW double counting   =         3.11672761       -3.16631803
  entropy T*S    EENTRO =         0.00000000
  eigenvalues    EBANDS =       -24.49084418
  ---------------------------------------------------
  free energy    TOTEN  =       -28.18398624 eV

  energy without entropy =      -28.18398624


----------------------------------------- Iteration    3(   6)  ---------------------------------------


   POT+DIJ:  cpu time    0.08: real time    0.08
    HAMIL1:  cpu time    0.00: real time    0.01
    LRDIAG:  cpu time    0.01: real time    0.01
    LRDIIS:  cpu time    0.02: real time    0.02
    LRDIAG:  cpu time    0.01: real time    0.01
    MIXING:  cpu time    0.00: real time    0.00
    --------------------------------------------
      LOOP:  cpu time    0.15: real time    0.15

 Broyden mixing:
  rms(total) = 0.63573E-02    rms(broyden)= 0.63571E-02
  rms(prec ) = 0.10857E-01
  weight for this iteration     100.00

 eigenvalues of (default mixing * dielectric matrix)
  average eigenvalue GAMMA=   2.0782
  3.0458  2.4883  1.1196  1.6592

 Free energy of the ion-electron system (eV)
  ---------------------------------------------------
  -1/2 Hartree   DENC   =        -4.61314874
  -V(xc)+E(xc)   XCENC  =         0.95003821
  PAW double counting   =         3.09663673       -3.14593925
  entropy T*S    EENTRO =         0.00000000
  eigenvalues    EBANDS =       -24.52253363
  ---------------------------------------------------
  free energy    TOTEN  =       -28.23494669 eV

  energy without entropy =      -28.23494669


----------------------------------------- Iteration    3(   7)  ---------------------------------------


   POT+DIJ:  cpu time    0.08: real time    0.08
    HAMIL1:  cpu time    0.01: real time    0.01
    LRDIAG:  cpu time    0.01: real time    0.01
    LRDIIS:  cpu time    0.02: real time    0.02
    LRDIAG:  cpu time    0.01: real time    0.01
    MIXING:  cpu time    0.00: real time    0.00
    --------------------------------------------
      LOOP:  cpu time    0.15: real time    0.15

 Broyden mixing:
  rms(total) = 0.51702E-03    rms(broyden)= 0.51601E-03
  rms(prec ) = 0.87591E-03
  weight for this iteration     100.00

 eigenvalues of (default mixing * dielectric matrix)
  average eigenvalue GAMMA=   2.0127
  3.1017  2.3539  1.1142  1.8479  1.6456

 Free energy of the ion-electron system (eV)
  ---------------------------------------------------
  -1/2 Hartree   DENC   =        -4.62248191
  -V(xc)+E(xc)   XCENC  =         0.95675983
  PAW double counting   =         3.06252599       -3.11131628
  entropy T*S    EENTRO =         0.00000000
  eigenvalues    EBANDS =       -24.55575647
  ---------------------------------------------------
  free energy    TOTEN  =       -28.27026884 eV

  energy without entropy =      -28.27026884


----------------------------------------- Iteration    3(   8)  ---------------------------------------


   POT+DIJ:  cpu time    0.07: real time    0.08
    HAMIL1:  cpu time    0.00: real time    0.01
    LRDIAG:  cpu time    0.01: real time    0.01
    LRDIIS:  cpu time    0.02: real time    0.02
    LRDIAG:  cpu time    0.01: real time    0.01
    MIXING:  cpu time    0.00: real time    0.00
    --------------------------------------------
      LOOP:  cpu time    0.15: real time    0.15

 Broyden mixing:
  rms(total) = 0.27856E-03    rms(broyden)= 0.27849E-03
  rms(prec ) = 0.40244E-03
  weight for this iteration     100.00

 eigenvalues of (default mixing * dielectric matrix)
  average eigenvalue GAMMA=   1.9330
  3.0912  2.4768  2.1938  1.6686  1.1073  1.0600

 Free energy of the ion-electron system (eV)
  ---------------------------------------------------
  -1/2 Hartree   DENC   =        -4.62552256
  -V(xc)+E(xc)   XCENC  =         0.95750963
  PAW double counting   =         3.06697927       -3.11584366
  entropy T*S    EENTRO =         0.00000000
  eigenvalues    EBANDS =       -24.55629446
  ---------------------------------------------------
  free energy    TOTEN  =       -28.27317176 eV

  energy without entropy =      -28.27317176


----------------------------------------- Iteration    3(   9)  ---------------------------------------


   POT+DIJ:  cpu time    0.08: real time    0.08
    HAMIL1:  cpu time    0.00: real time    0.01
    LRDIAG:  cpu time    0.01: real time    0.01
    LRDIIS:  cpu time    0.02: real time    0.02
    LRDIAG:  cpu time    0.01: real time    0.01
    MIXING:  cpu time    0.00: real time    0.00
    --------------------------------------------
      LOOP:  cpu time    0.15: real time    0.16

 Broyden mixing:
  rms(total) = 0.77352E-04    rms(broyden)= 0.77330E-04
  rms(prec ) = 0.12099E-03
  weight for this iteration     100.00

 eigenvalues of (default mixing * dielectric matrix)
  average eigenvalue GAMMA=   1.8881
  3.1815  2.7525  2.4161  1.6740  1.2119  1.0897  0.8912

 Free energy of the ion-electron system (eV)
  ---------------------------------------------------
  -1/2 Hartree   DENC   =        -4.62528223
  -V(xc)+E(xc)   XCENC  =         0.95745792
  PAW double counting   =         3.06973854       -3.11865028
  entropy T*S    EENTRO =         0.00000000
  eigenvalues    EBANDS =       -24.55653226
  ---------------------------------------------------
  free energy    TOTEN  =       -28.27326830 eV

  energy without entropy =      -28.27326830


----------------------------------------- Iteration    3(  10)  ---------------------------------------


   POT+DIJ:  cpu time    0.08: real time    0.08
    HAMIL1:  cpu time    0.00: real time    0.01
    LRDIAG:  cpu time    0.01: real time    0.01
    LRDIIS:  cpu time    0.02: real time    0.02
    LRDIAG:  cpu time    0.01: real time    0.01
    MIXING:  cpu time    0.00: real time    0.00
    --------------------------------------------
      LOOP:  cpu time    0.15: real time    0.16

 Broyden mixing:
  rms(total) = 0.10433E-04    rms(broyden)= 0.10419E-04
  rms(prec ) = 0.18414E-04
  weight for this iteration     100.00

 eigenvalues of (default mixing * dielectric matrix)
  average eigenvalue GAMMA=   1.8415
  3.1952  2.7746  2.4462  1.6731  1.4969  1.1176  1.0024  1.0262

 Free energy of the ion-electron system (eV)
  ---------------------------------------------------
  -1/2 Hartree   DENC   =        -4.62535624
  -V(xc)+E(xc)   XCENC  =         0.95749642
  PAW double counting   =         3.07058486       -3.11951143
  entropy T*S    EENTRO =         0.00000000
  eigenvalues    EBANDS =       -24.55675722
  ---------------------------------------------------
  free energy    TOTEN  =       -28.27354362 eV

  energy without entropy =      -28.27354362


----------------------------------------- Iteration    3(  11)  ---------------------------------------


   POT+DIJ:  cpu time    0.08: real time    0.08
    HAMIL1:  cpu time    0.00: real time    0.01
    LRDIAG:  cpu time    0.01: real time    0.01
    LRDIIS:  cpu time    0.02: real time    0.02
    LRDIAG:  cpu time    0.01: real time    0.01
    MIXING:  cpu time    0.00: real time    0.00
    --------------------------------------------
      LOOP:  cpu time    0.16: real time    0.16

 Broyden mixing:
  rms(total) = 0.36675E-05    rms(broyden)= 0.36651E-05
  rms(prec ) = 0.48862E-05
  weight for this iteration     100.00

 eigenvalues of (default mixing * dielectric matrix)
  average eigenvalue GAMMA=   1.8961
  3.2083  2.7072  2.5306  2.4220  1.6731  1.4131  1.0032  1.0032  1.1045

 Free energy of the ion-electron system (eV)
  ---------------------------------------------------
  -1/2 Hartree   DENC   =        -4.62536310
  -V(xc)+E(xc)   XCENC  =         0.95749527
  PAW double counting   =         3.07056855       -3.11949484
  entropy T*S    EENTRO =         0.00000000
  eigenvalues    EBANDS =       -24.55674845
  ---------------------------------------------------
  free energy    TOTEN  =       -28.27354256 eV

  energy without entropy =      -28.27354256


----------------------------------------- Iteration    3(  12)  ---------------------------------------


   POT+DIJ:  cpu time    0.08: real time    0.08
    HAMIL1:  cpu time    0.00: real time    0.00
    LRDIAG:  cpu time    0.01: real time    0.01
    LRDIIS:  cpu time    0.02: real time    0.02
    LRDIAG:  cpu time    0.01: real time    0.01
    MIXING:  cpu time    0.00: real time    0.00
    --------------------------------------------
      LOOP:  cpu time    0.15: real time    0.15

 Broyden mixing:
  rms(total) = 0.72918E-06    rms(broyden)= 0.72868E-06
  rms(prec ) = 0.11872E-05
  weight for this iteration     100.00

 eigenvalues of (default mixing * dielectric matrix)
  average eigenvalue GAMMA=   1.8326
  3.2062  2.8389  2.4504  2.5324  1.6722  1.0080  1.0080  1.1004  1.2548  1.2548

 Free energy of the ion-electron system (eV)
  ---------------------------------------------------
  -1/2 Hartree   DENC   =        -4.62536817
  -V(xc)+E(xc)   XCENC  =         0.95749621
  PAW double counting   =         3.07047300       -3.11939766
  entropy T*S    EENTRO =         0.00000000
  eigenvalues    EBANDS =       -24.55674987
  ---------------------------------------------------
  free energy    TOTEN  =       -28.27354649 eV

  energy without entropy =      -28.27354649


------------------------ aborting loop because EDIFF is reached ----------------------------------------


 change of polarisation eV/A/(eV/A) component  3 :     0.001     0.121    50.512
 dielectric tensor                  component  3 :     0.001     0.134    56.847


--------------------------------------------------------------------------------------------------------


    FORLOC:  cpu time    0.00: real time    0.00
    FORNL :  cpu time    0.09: real time    0.09
    STRESS:  cpu time    0.30: real time    0.30
    FORCOR:  cpu time    0.02: real time    0.02
    FORLOC:  cpu time    0.00: real time    0.00
    FORNL :  cpu time    0.09: real time    0.09
    STRESS:  cpu time    0.30: real time    0.30
    FORCOR:  cpu time    0.02: real time    0.02
    FORNLD:  cpu time    0.01: real time    0.01

 PIEZOELECTRIC TENSOR FIELD DIRECTION 3  (e Angst)
 -----------------------------------------------------------------------------
     0.00197 -0.00153 -0.00003           (  0.00006  0.00001  0.00005)
    -0.00153  0.00202  0.00173           (  0.00001 -0.00004  0.00005)
    -0.00003  0.00173  0.00317           (  0.00005  0.00005 -0.00005)

 PIEZOELECTRIC TENSOR FIELD DIRECTION 3  (C/m^2)
 -----------------------------------------------------------------------------
     0.00019 -0.00015  0.00000
    -0.00015  0.00020  0.00017
     0.00000  0.00017  0.00031


      POSITION         DIRECTION 3           BORN EFFECTIVE CHARGE    (rigid.aug.   ionic)
 -----------------------------------------------------------------------------------------
      5.46674      5.46999      5.46844    -0.03984 -0.00280 -5.73929 (  0.21594  4.00000)
      1.36749      1.36594      1.36609    -0.02715  0.04690 -5.79769 (  0.21592  4.00000)
      2.73344      2.73359      5.46967     0.05220 -0.04547 -5.74371 (  0.21594  4.00000)
      4.10109      4.10217      1.36405    -0.01367 -0.07031 -5.73844 (  0.21595  4.00000)
      2.73467      5.46655      2.73141     0.03738  0.03640 -5.76734 (  0.21594  4.00000)
      4.09905      1.36391      4.10268     0.02840  0.06516 -5.77165 (  0.21593  4.00000)
      5.46641      2.73518      2.73578    -0.04964 -0.00438 -5.85358 (  0.21589  4.00000)
      1.36768      4.10328      4.10211     0.01295 -0.05519 -5.79222 (  0.21592  4.00000)
 -----------------------------------------------------------------------------------------
    total drift (improves with k-points):   0.00063 -0.02968-46.20392




--------------------------------------------------------------------------------------------------------


  LATTYP: Found a simple cubic cell.
 ALAT       =     5.4700000000
  
  Lattice vectors:
  
 A1 = (   5.4700000000,   0.0000000000,   0.0000000000)
 A2 = (   0.0000000000,   5.4700000000,   0.0000000000)
 A3 = (   0.0000000000,   0.0000000000,   5.4700000000)


Analysis of symmetry for initial positions (statically):
=====================================================================
 Subroutine PRICEL returns:
 Original cell was already a primitive cell.
 

 Routine SETGRP: Setting up the symmetry group for a 
 simple cubic supercell.


 Subroutine GETGRP returns: Found  1 space group operations
 (whereof  1 operations were pure point group operations)
 out of a pool of 48 trial point group operations.


The static configuration has the point symmetry C_1 .


Analysis of symmetry for dynamics (positions and initial velocities):
=====================================================================
 Subroutine PRICEL returns:
 Original cell was already a primitive cell.
 

 Routine SETGRP: Setting up the symmetry group for a 
 simple cubic supercell.


 Subroutine GETGRP returns: Found  1 space group operations
 (whereof  1 operations were pure point group operations)
 out of a pool of 48 trial point group operations.


The dynamic configuration has the point symmetry C_1 .


 MACROSCOPIC STATIC DIELECTRIC TENSOR (including local field effects in DFT)
 ------------------------------------------------------
          56.847521    -0.011092     0.001360
          -0.011093    56.850170     0.133939
           0.001363     0.133935    56.846538
 ------------------------------------------------------



--------------------------------------------------------------------------------------------------------


  LATTYP: Found a simple cubic cell.
 ALAT       =     5.4700000000
  
  Lattice vectors:
  
 A1 = (   5.4700000000,   0.0000000000,   0.0000000000)
 A2 = (   0.0000000000,   5.4700000000,   0.0000000000)
 A3 = (   0.0000000000,   0.0000000000,   5.4700000000)


Analysis of symmetry for initial positions (statically):
=====================================================================
 Subroutine PRICEL returns:
 Original cell was already a primitive cell.
 

 Routine SETGRP: Setting up the symmetry group for a 
 simple cubic supercell.


 Subroutine GETGRP returns: Found  1 space group operations
 (whereof  1 operations were pure point group operations)
 out of a pool of 48 trial point group operations.


The static configuration has the point symmetry C_1 .


Analysis of symmetry for dynamics (positions and initial velocities):
=====================================================================
 Subroutine PRICEL returns:
 Original cell was already a primitive cell.
 

 Routine SETGRP: Setting up the symmetry group for a 
 simple cubic supercell.


 Subroutine GETGRP returns: Found  1 space group operations
 (whereof  1 operations were pure point group operations)
 out of a pool of 48 trial point group operations.


The dynamic configuration has the point symmetry C_1 .
 
 KPOINTS: Automatic mesh                          

Automatic generation of k-mesh.
Space group operators:
 irot       det(A)        alpha          n_x          n_y          n_z        tau_x        tau_y        tau_z
    1     1.000000     0.000001     1.000000     0.000000     0.000000     0.000000     0.000000     0.000000
 
 Subroutine IBZKPT returns following result:
 ===========================================
 
 Found      1 irreducible k-points:
 
 Following reciprocal coordinates:
            Coordinates               Weight
  0.000000  0.000000  0.000000      1.000000
 
 Following cartesian coordinates:
            Coordinates               Weight
  0.000000  0.000000  0.000000      1.000000
 


--------------------------------------------------------------------------------------------------------




 MACROSCOPIC STATIC DIELECTRIC TENSOR (including local field effects in DFT)
 ------------------------------------------------------
          56.847521    -0.011092     0.001360
          -0.011093    56.850170     0.133939
           0.001363     0.133935    56.846538
 ------------------------------------------------------


 PIEZOELECTRIC TENSOR  for field in x, y, z        (e  Angst)
          XX          YY          ZZ          XY          YZ          ZX
  --------------------------------------------------------------------------------
  x    -0.01051     0.00251     0.00421     0.00330     0.00057    -0.00141
  y     0.00669    -0.00115    -0.00181    -0.00063     0.00705    -0.00283
  z     0.00197     0.00202     0.00317    -0.00153     0.00173    -0.00003

 PIEZOELECTRIC TENSOR  for field in x, y, z        (C/m^2)
          XX          YY          ZZ          XY          YZ          ZX
  --------------------------------------------------------------------------------
  x    -0.00103     0.00025     0.00041     0.00032     0.00006    -0.00014
  y     0.00066    -0.00011    -0.00018    -0.00006     0.00069    -0.00028
  z     0.00019     0.00020     0.00031    -0.00015     0.00017     0.00000
 
 BORN EFFECTIVE CHARGES (in e, cummulative output)
 -------------------------------------------------
 ion    1
    1    -5.77188     0.05491     0.05883
    2    -0.04268    -5.73688     0.02089
    3    -0.03984    -0.00280    -5.73929
 ion    2
    1    -5.81940     0.03648     0.01471
    2    -0.08309    -5.80677    -0.02748
    3    -0.02715     0.04690    -5.79769
 ion    3
    1    -5.74156    -0.05327    -0.04668
    2     0.04679    -5.77770     0.02655
    3     0.05220    -0.04547    -5.74371
 ion    4
    1    -5.72509    -0.03501     0.03896
    2     0.08265    -5.73558     0.01260
    3    -0.01367    -0.07031    -5.73844
 ion    5
    1    -5.73755     0.02523    -0.05755
    2    -0.06028    -5.73472    -0.03626
    3     0.03738     0.03640    -5.76734
 ion    6
    1    -5.75204    -0.01368    -0.01365
    2     0.03883    -5.77619    -0.01791
    3     0.02840     0.06516    -5.77165
 ion    7
    1    -5.85336    -0.02506     0.04850
    2     0.06214    -5.85832    -0.02770
    3    -0.04964    -0.00438    -5.85358
 ion    8
    1    -5.80683     0.01404    -0.04296
    2    -0.04043    -5.78369     0.01944
    3     0.01295    -0.05519    -5.79222


--------------------------------------------------------------------------------------------------------


     LOOP+:  cpu time   18.37: real time   18.75
    4ORBIT:  cpu time    0.00: real time    0.00

 total amount of memory used by VASP on root node    32224. kBytes
========================================================================

   base      :      30000. kBytes
   nonl-proj :        202. kBytes
   fftplans  :        782. kBytes
   grid      :       1198. kBytes
   one-center:         24. kBytes
   wavefun   :         18. kBytes
 
  
  
 General timing and accounting informations for this job:
 ========================================================
  
                  Total CPU time used (sec):       19.168
                            User time (sec):       14.926
                          System time (sec):        4.242
                         Elapsed time (sec):       21.064
  
                   Maximum memory used (kb):       75940.
                   Average memory used (kb):           0.
  
                          Minor page faults:       206185
                          Major page faults:            0
                 Voluntary context switches:         1418
