 running on   48 total cores
 distrk:  each k-point on   48 cores,    1 groups
 distr:  one band on    1 cores,   48 groups
 using from now: INCAR     
 vasp.5.3.3 18Dez12 (build Jan  9 2014 12:00:49) complex                        
  
 POSCAR found type information on POSCAR  Si
 POSCAR found :  1 types and       8 ions
 scaLAPACK will be used

 ----------------------------------------------------------------------------- 
|                                                                             |
|           W    W    AA    RRRRR   N    N  II  N    N   GGGG   !!!           |
|           W    W   A  A   R    R  NN   N  II  NN   N  G    G  !!!           |
|           W    W  A    A  R    R  N N  N  II  N N  N  G       !!!           |
|           W WW W  AAAAAA  RRRRR   N  N N  II  N  N N  G  GGG   !            |
|           WW  WW  A    A  R   R   N   NN  II  N   NN  G    G                |
|           W    W  A    A  R    R  N    N  II  N    N   GGGG   !!!           |
|                                                                             |
|      For optimal performance we recommend that you set                      |
|        NPAR = 4 - approx SQRT( number of cores)                             |
|      (number of cores/NPAR must be integer)                                 |
|      This setting will greatly improve the performance of VASP for DFT.     |
|      The default NPAR=number of cores might be grossly inefficient          |
|      on modern multi-core architectures or massively parallel machines.     |
|      Do your own testing.                                                   |
|      Unfortunately you need to use the default for hybrid, GW and RPA       |
|      calculations.                                                          |
|                                                                             |
 ----------------------------------------------------------------------------- 

 LDA part: xc-table for Ceperly-Alder, standard interpolation
 POSCAR found type information on POSCAR  Si
 POSCAR found :  1 types and       8 ions
 POSCAR, INCAR and KPOINTS ok, starting setup
 FFT: planning ...
 WAVECAR not read
 entering main loop
       N       E                     dE             d eps       ncg     rms          rms(c)
DAV:   1    -0.101405746602E+02   -0.10141E+02   -0.79560E+03    96   0.246E+02
DAV:   2    -0.344507869381E+02   -0.24310E+02   -0.24306E+02   144   0.326E+01
DAV:   3    -0.346177531383E+02   -0.16697E+00   -0.16697E+00    96   0.330E+00
DAV:   4    -0.346181071523E+02   -0.35401E-03   -0.35401E-03   192   0.176E-01
DAV:   5    -0.346181071554E+02   -0.30511E-08   -0.30530E-08    96   0.550E-04    0.793E+00
RMM:   6    -0.336163626841E+02    0.10017E+01   -0.31980E-01    96   0.120E+00    0.474E+00
RMM:   7    -0.331916689085E+02    0.42469E+00   -0.73888E-01    96   0.195E+00    0.462E-01
RMM:   8    -0.332236580546E+02   -0.31989E-01   -0.21621E-02    96   0.416E-01    0.747E-02
RMM:   9    -0.332247928400E+02   -0.11348E-02   -0.12681E-03   105   0.985E-02    0.418E-02
RMM:  10    -0.332249757258E+02   -0.18289E-03   -0.24037E-04   104   0.440E-02    0.459E-03
RMM:  11    -0.332249713065E+02    0.44194E-05   -0.33286E-06   114   0.504E-03    0.160E-03
RMM:  12    -0.332249720118E+02   -0.70535E-06   -0.57772E-07   126   0.219E-03    0.625E-04
RMM:  13    -0.332249718928E+02    0.11902E-06   -0.23013E-08   117   0.444E-04    0.179E-04
RMM:  14    -0.332249717594E+02    0.13345E-06   -0.23537E-09    99   0.132E-04    0.302E-05
RMM:  15    -0.332249717663E+02   -0.69309E-08   -0.21149E-10    67   0.496E-05
   1 F= -.33224972E+02 E0= -.33224972E+02  d E =-.440476E-19
 Linear response reoptimize wavefunctions to high precision
DAV:   1    -0.332249717622E+02    0.41281E-08   -0.17631E-10   144   0.345E-05
DAV:   2    -0.332249717622E+02   -0.11369E-12   -0.51248E-12    96   0.196E-06
 Linear response G [H, r] |phi>, progress :
  Direction:   1
       N       E                     dE             d eps       ncg     rms
RMM:   1    -0.438158813296E+03   -0.43816E+03   -0.23064E+03   241   0.368E+01
RMM:   2    -0.575048992852E+03   -0.13689E+03    0.32840E+03   161   0.651E+00
RMM:   3    -0.512008500499E+03    0.63040E+02    0.39275E+03   189   0.925E-01
RMM:   4    -0.514222188497E+03   -0.22137E+01    0.39056E+03   202   0.461E-01
RMM:   5    -0.514372181206E+03   -0.14999E+00    0.39041E+03   224   0.428E-01
RMM:   6    -0.514504643673E+03   -0.13246E+00    0.39027E+03   233   0.425E-01
 Linear response G [H, r] |phi>, progress :
  Direction:   2
       N       E                     dE             d eps       ncg     rms
RMM:   1    -0.440997946949E+03   -0.44100E+03   -0.23348E+03   240   0.370E+01
RMM:   2    -0.279347580855E+03    0.16165E+03    0.11398E+02   163   0.663E+00
RMM:   3    -0.285494107502E+03   -0.61465E+01    0.65910E+01   181   0.722E-01
RMM:   4    -0.286632985464E+03   -0.11389E+01    0.54690E+01   219   0.146E-01
RMM:   5    -0.290249803056E+03   -0.36168E+01    0.18523E+01   226   0.122E-01
RMM:   6    -0.290865201282E+03   -0.61540E+00    0.12370E+01   239   0.121E-01
RMM:   7    -0.289375869817E+03    0.14893E+01    0.27263E+01   238   0.121E-01
 Linear response G [H, r] |phi>, progress :
  Direction:   3
       N       E                     dE             d eps       ncg     rms
RMM:   1    -0.465143895905E+03   -0.46514E+03   -0.25763E+03   242   0.374E+01
RMM:   2    -0.393150362576E+02    0.42583E+03   -0.72932E+02   163   0.676E+00
RMM:   3    -0.574895831235E+02   -0.18175E+02   -0.89721E+02   185   0.913E-01
RMM:   4    -0.705728052589E+02   -0.13083E+02   -0.10279E+03   199   0.395E-01
RMM:   5    -0.664643333362E+02    0.41085E+01   -0.98678E+02   226   0.366E-01
RMM:   6    -0.666991402572E+02   -0.23481E+00   -0.98913E+02   231   0.363E-01
 Linear response to external field (no local field effect), progress :
  Direction:   1
       N       E                     dE             d eps       ncg     rms          rms(c)
RMM:   1    -0.244508934923E+02   -0.24451E+02   -0.14135E+02   220   0.659E+00
RMM:   2    -0.263897527688E+02   -0.19389E+01   -0.11778E-01   159   0.855E-01
RMM:   3    -0.263904461881E+02   -0.69342E-03   -0.28785E-04   170   0.385E-02
RMM:   4    -0.263904482041E+02   -0.20160E-05   -0.12466E-06   171   0.252E-03
RMM:   5    -0.263904482111E+02   -0.70206E-08   -0.18628E-08   169   0.226E-04
 change of polarisation eV/A/(eV/A) component  1 :    52.781    -0.034     0.149
 dielectric tensor                  component  1 :    59.355    -0.038     0.164
 Linear response to external field (no local field effect), progress :
  Direction:   2
       N       E                     dE             d eps       ncg     rms          rms(c)
RMM:   1    -0.244744194220E+02   -0.24474E+02   -0.14157E+02   223   0.664E+00
RMM:   2    -0.263989222710E+02   -0.19245E+01   -0.11143E-01   162   0.844E-01
RMM:   3    -0.263995882596E+02   -0.66599E-03   -0.28220E-04   171   0.386E-02
RMM:   4    -0.263995902377E+02   -0.19780E-05   -0.12285E-06   171   0.253E-03
RMM:   5    -0.263995902448E+02   -0.70831E-08   -0.12672E-08   172   0.214E-04
 change of polarisation eV/A/(eV/A) component  2 :    -0.034    52.799    -0.103
 dielectric tensor                  component  2 :    -0.038    59.376    -0.114
 Linear response to external field (no local field effect), progress :
  Direction:   3
       N       E                     dE             d eps       ncg     rms          rms(c)
RMM:   1    -0.244785610247E+02   -0.24479E+02   -0.14161E+02   221   0.665E+00
RMM:   2    -0.263989503969E+02   -0.19204E+01   -0.11082E-01   166   0.839E-01
RMM:   3    -0.263996204874E+02   -0.67009E-03   -0.28121E-04   171   0.387E-02
RMM:   4    -0.263996224648E+02   -0.19775E-05   -0.12334E-06   171   0.255E-03
RMM:   5    -0.263996224718E+02   -0.69586E-08   -0.15158E-08   170   0.221E-04
 change of polarisation eV/A/(eV/A) component  3 :     0.149    -0.103    52.799
 dielectric tensor                  component  3 :     0.164    -0.114    59.376
 Linear response to external field, progress :
  Direction:   1
       N       E                     dE             d eps       ncg     rms          rms(c)
RMM:   1    -0.244508934923E+02   -0.24451E+02   -0.14135E+02   220   0.659E+00
RMM:   2    -0.263897527688E+02   -0.19389E+01   -0.11778E-01   159   0.855E-01    0.853E+00
RMM:   3    -0.259473532262E+02    0.44240E+00   -0.28257E-01   167   0.122E+00    0.500E+00
RMM:   4    -0.276933744680E+02   -0.17460E+01   -0.34253E-01   149   0.149E+00    0.851E-01
RMM:   5    -0.281970403642E+02   -0.50367E+00   -0.26308E-02   160   0.413E-01    0.124E-01
RMM:   6    -0.282402028572E+02   -0.43162E-01   -0.74129E-04   165   0.809E-02    0.594E-02
RMM:   7    -0.282754274153E+02   -0.35225E-01   -0.48090E-04   148   0.678E-02    0.565E-03
RMM:   8    -0.282788120504E+02   -0.33846E-02   -0.16271E-05   171   0.102E-02    0.276E-03
RMM:   9    -0.282788407442E+02   -0.28694E-04   -0.57517E-07   167   0.220E-03    0.813E-04
RMM:  10    -0.282791667958E+02   -0.32605E-03   -0.15259E-07   162   0.112E-03    0.995E-05
RMM:  11    -0.282791483098E+02    0.18486E-04   -0.38206E-08   167   0.244E-04    0.425E-05
RMM:  12    -0.282791538485E+02   -0.55386E-05   -0.36268E-08   166   0.226E-04    0.939E-06
 change of polarisation eV/A/(eV/A) component  1 :    50.520    -0.034     0.144
 dielectric tensor                  component  1 :    56.856    -0.038     0.159
 Linear response to external field, progress :
  Direction:   2
       N       E                     dE             d eps       ncg     rms          rms(c)
RMM:   1    -0.244744194220E+02   -0.24474E+02   -0.14157E+02   223   0.664E+00
RMM:   2    -0.263989222710E+02   -0.19245E+01   -0.11143E-01   162   0.844E-01    0.854E+00
RMM:   3    -0.259527208050E+02    0.44620E+00   -0.28114E-01   168   0.122E+00    0.500E+00
RMM:   4    -0.276872631903E+02   -0.17345E+01   -0.34191E-01   151   0.148E+00    0.860E-01
RMM:   5    -0.281775334443E+02   -0.49027E+00   -0.21683E-02   162   0.385E-01    0.139E-01
RMM:   6    -0.282400383512E+02   -0.62505E-01   -0.78477E-04   163   0.833E-02    0.716E-02
RMM:   7    -0.282806977880E+02   -0.40659E-01   -0.65244E-04   146   0.820E-02    0.534E-03
RMM:   8    -0.282843266864E+02   -0.36289E-02   -0.21529E-05   172   0.114E-02    0.277E-03
RMM:   9    -0.282843737055E+02   -0.47019E-04   -0.28233E-07   170   0.196E-03    0.102E-03
RMM:  10    -0.282846881069E+02   -0.31440E-03    0.62112E-08   163   0.134E-03    0.150E-04
RMM:  11    -0.282846824844E+02    0.56226E-05    0.22935E-07   167   0.258E-04    0.380E-05
RMM:  12    -0.282846828485E+02   -0.36419E-06    0.24103E-07   168   0.213E-04    0.124E-05
RMM:  13    -0.282846836222E+02   -0.77366E-06    0.24289E-07   168   0.212E-04    0.208E-06
 change of polarisation eV/A/(eV/A) component  2 :    -0.034    50.530    -0.102
 dielectric tensor                  component  2 :    -0.038    56.866    -0.112
 Linear response to external field, progress :
  Direction:   3
       N       E                     dE             d eps       ncg     rms          rms(c)
RMM:   1    -0.244785610247E+02   -0.24479E+02   -0.14161E+02   221   0.665E+00
RMM:   2    -0.263989503969E+02   -0.19204E+01   -0.11082E-01   166   0.839E-01    0.854E+00
RMM:   3    -0.259529756459E+02    0.44597E+00   -0.28413E-01   166   0.122E+00    0.500E+00
RMM:   4    -0.276877218869E+02   -0.17347E+01   -0.33977E-01   157   0.148E+00    0.859E-01
RMM:   5    -0.281786633376E+02   -0.49094E+00   -0.21773E-02   161   0.386E-01    0.139E-01
RMM:   6    -0.282406229909E+02   -0.61960E-01   -0.77820E-04   163   0.830E-02    0.714E-02
RMM:   7    -0.282811576942E+02   -0.40535E-01   -0.65121E-04   145   0.819E-02    0.533E-03
RMM:   8    -0.282847220781E+02   -0.35644E-02   -0.21110E-05   174   0.113E-02    0.279E-03
RMM:   9    -0.282847949806E+02   -0.72902E-04   -0.37809E-07   168   0.200E-03    0.101E-03
RMM:  10    -0.282851020990E+02   -0.30712E-03   -0.32909E-08   162   0.133E-03    0.158E-04
RMM:  11    -0.282850957398E+02    0.63592E-05    0.10743E-07   166   0.305E-04    0.378E-05
RMM:  12    -0.282850962149E+02   -0.47515E-06    0.10297E-07   167   0.261E-04    0.879E-06
 change of polarisation eV/A/(eV/A) component  3 :     0.144    -0.102    50.530
 dielectric tensor                  component  3 :     0.159    -0.112    56.867
 running on   48 total cores
 distrk:  each k-point on   48 cores,    1 groups
 distr:  one band on    1 cores,   48 groups
 using from now: INCAR     
 vasp.5.3.3 18Dez12 (build Jan  9 2014 12:00:49) complex                        
  
 POSCAR found type information on POSCAR  Si
 POSCAR found :  1 types and       8 ions
 scaLAPACK will be used

 ----------------------------------------------------------------------------- 
|                                                                             |
|           W    W    AA    RRRRR   N    N  II  N    N   GGGG   !!!           |
|           W    W   A  A   R    R  NN   N  II  NN   N  G    G  !!!           |
|           W    W  A    A  R    R  N N  N  II  N N  N  G       !!!           |
|           W WW W  AAAAAA  RRRRR   N  N N  II  N  N N  G  GGG   !            |
|           WW  WW  A    A  R   R   N   NN  II  N   NN  G    G                |
|           W    W  A    A  R    R  N    N  II  N    N   GGGG   !!!           |
|                                                                             |
|      For optimal performance we recommend that you set                      |
|        NPAR = 4 - approx SQRT( number of cores)                             |
|      (number of cores/NPAR must be integer)                                 |
|      This setting will greatly improve the performance of VASP for DFT.     |
|      The default NPAR=number of cores might be grossly inefficient          |
|      on modern multi-core architectures or massively parallel machines.     |
|      Do your own testing.                                                   |
|      Unfortunately you need to use the default for hybrid, GW and RPA       |
|      calculations.                                                          |
|                                                                             |
 ----------------------------------------------------------------------------- 

 LDA part: xc-table for Ceperly-Alder, standard interpolation
 POSCAR found type information on POSCAR  Si
 POSCAR found :  1 types and       8 ions
 POSCAR, INCAR and KPOINTS ok, starting setup
 FFT: planning ...
 WAVECAR not read
 entering main loop
       N       E                     dE             d eps       ncg     rms          rms(c)
DAV:   1    -0.101323911331E+02   -0.10132E+02   -0.79562E+03    96   0.246E+02
DAV:   2    -0.344503104334E+02   -0.24318E+02   -0.24316E+02   144   0.326E+01
DAV:   3    -0.346177529698E+02   -0.16744E+00   -0.16744E+00    96   0.330E+00
DAV:   4    -0.346181078440E+02   -0.35487E-03   -0.35487E-03   192   0.176E-01
DAV:   5    -0.346181078471E+02   -0.30486E-08   -0.30489E-08    96   0.551E-04    0.793E+00
RMM:   6    -0.336163636491E+02    0.10017E+01   -0.31981E-01    96   0.120E+00    0.474E+00
RMM:   7    -0.331916701650E+02    0.42469E+00   -0.73888E-01    96   0.195E+00    0.462E-01
RMM:   8    -0.332236585085E+02   -0.31988E-01   -0.21616E-02    96   0.416E-01    0.748E-02
RMM:   9    -0.332247938590E+02   -0.11354E-02   -0.12682E-03   106   0.985E-02    0.418E-02
RMM:  10    -0.332249767590E+02   -0.18290E-03   -0.23905E-04   104   0.439E-02    0.450E-03
RMM:  11    -0.332249723576E+02    0.44014E-05   -0.32341E-06   115   0.494E-03    0.157E-03
RMM:  12    -0.332249730142E+02   -0.65664E-06   -0.54870E-07   125   0.213E-03    0.609E-04
RMM:  13    -0.332249729298E+02    0.84478E-07   -0.23901E-08   117   0.443E-04    0.193E-04
RMM:  14    -0.332249727818E+02    0.14794E-06   -0.25352E-09   101   0.133E-04    0.324E-05
RMM:  15    -0.332249727824E+02   -0.53160E-09   -0.24130E-10    65   0.511E-05
   1 F= -.33224973E+02 E0= -.33224973E+02  d E =-.510455E-19
 Linear response reoptimize wavefunctions to high precision
DAV:   1    -0.332249727800E+02    0.23800E-08   -0.17861E-10   192   0.354E-05
DAV:   2    -0.332249727800E+02   -0.12506E-11   -0.10001E-11    96   0.202E-06
 Linear response G [H, r] |phi>, progress :
  Direction:   1
       N       E                     dE             d eps       ncg     rms
RMM:   1    -0.438032008241E+03   -0.43803E+03   -0.23051E+03   241   0.368E+01
RMM:   2     0.787813434488E+02    0.51681E+03   -0.27106E+03   171   0.650E+00
RMM:   3    -0.271244211303E+02   -0.10591E+03   -0.37565E+03   204   0.925E-01
RMM:   4    -0.321931407733E+02   -0.50687E+01   -0.38070E+03   221   0.456E-01
RMM:   5    -0.325781896402E+02   -0.38505E+00   -0.38109E+03   233   0.422E-01
RMM:   6    -0.328864321054E+02   -0.30824E+00   -0.38140E+03   247   0.418E-01
 Linear response G [H, r] |phi>, progress :
  Direction:   2
       N       E                     dE             d eps       ncg     rms
RMM:   1    -0.429604009949E+03   -0.42960E+03   -0.22209E+03   239   0.370E+01
RMM:   2    -0.241457211072E+03    0.18815E+03    0.18865E+01   167   0.662E+00
RMM:   3    -0.245343218801E+03   -0.38860E+01   -0.66462E+00   191   0.722E-01
RMM:   4    -0.249311695448E+03   -0.39685E+01   -0.46159E+01   231   0.145E-01
RMM:   5    -0.251909565637E+03   -0.25979E+01   -0.72136E+01   235   0.121E-01
RMM:   6    -0.250584398618E+03    0.13252E+01   -0.58884E+01   250   0.120E-01
RMM:   7    -0.251543086947E+03   -0.95869E+00   -0.68471E+01   250   0.120E-01
 Linear response G [H, r] |phi>, progress :
  Direction:   3
       N       E                     dE             d eps       ncg     rms
RMM:   1    -0.468912433811E+03   -0.46891E+03   -0.26139E+03   242   0.374E+01
RMM:   2    -0.471274315170E+03   -0.23619E+01    0.90204E+02   169   0.676E+00
RMM:   3    -0.468580373369E+03    0.26939E+01    0.94286E+02   207   0.911E-01
RMM:   4    -0.452848411167E+03    0.15732E+02    0.11003E+03   217   0.392E-01
RMM:   5    -0.452831125612E+03    0.17286E-01    0.11005E+03   241   0.362E-01
RMM:   6    -0.453022484828E+03   -0.19136E+00    0.10986E+03   251   0.360E-01
 Linear response to external field (no local field effect), progress :
  Direction:   1
       N       E                     dE             d eps       ncg     rms          rms(c)
RMM:   1    -0.244516794919E+02   -0.24452E+02   -0.14135E+02   221   0.659E+00
RMM:   2    -0.263904663786E+02   -0.19388E+01   -0.11778E-01   158   0.855E-01
RMM:   3    -0.263911600898E+02   -0.69371E-03   -0.28743E-04   169   0.385E-02
RMM:   4    -0.263911621002E+02   -0.20104E-05   -0.12330E-06   171   0.251E-03
RMM:   5    -0.263911621072E+02   -0.69572E-08   -0.81369E-09   160   0.184E-04
 change of polarisation eV/A/(eV/A) component  1 :    52.782     0.037    -0.136
 dielectric tensor                  component  1 :    59.357     0.041    -0.150
 Linear response to external field (no local field effect), progress :
  Direction:   2
       N       E                     dE             d eps       ncg     rms          rms(c)
RMM:   1    -0.244747881822E+02   -0.24475E+02   -0.14158E+02   223   0.664E+00
RMM:   2    -0.263984832264E+02   -0.19237E+01   -0.11129E-01   161   0.844E-01
RMM:   3    -0.263991483059E+02   -0.66508E-03   -0.28202E-04   169   0.386E-02
RMM:   4    -0.263991502831E+02   -0.19772E-05   -0.12233E-06   176   0.252E-03
RMM:   5    -0.263991502901E+02   -0.70165E-08   -0.77352E-09   176   0.185E-04
 change of polarisation eV/A/(eV/A) component  2 :     0.037    52.798     0.100
 dielectric tensor                  component  2 :     0.041    59.375     0.111
 Linear response to external field (no local field effect), progress :
  Direction:   3
       N       E                     dE             d eps       ncg     rms          rms(c)
RMM:   1    -0.244785569580E+02   -0.24479E+02   -0.14162E+02   222   0.666E+00
RMM:   2    -0.263984903005E+02   -0.19199E+01   -0.11064E-01   162   0.839E-01
RMM:   3    -0.263991590619E+02   -0.66876E-03   -0.28143E-04   170   0.387E-02
RMM:   4    -0.263991610422E+02   -0.19802E-05   -0.12289E-06   175   0.255E-03
RMM:   5    -0.263991610491E+02   -0.69712E-08   -0.81190E-09   168   0.185E-04
 change of polarisation eV/A/(eV/A) component  3 :    -0.136     0.100    52.798
 dielectric tensor                  component  3 :    -0.150     0.111    59.375
 Linear response to external field, progress :
  Direction:   1
       N       E                     dE             d eps       ncg     rms          rms(c)
RMM:   1    -0.244516794919E+02   -0.24452E+02   -0.14135E+02   221   0.659E+00
RMM:   2    -0.263904663786E+02   -0.19388E+01   -0.11778E-01   158   0.855E-01    0.853E+00
RMM:   3    -0.259481255681E+02    0.44234E+00   -0.27005E-01   167   0.121E+00    0.500E+00
RMM:   4    -0.276938728303E+02   -0.17457E+01   -0.32762E-01   153   0.148E+00    0.851E-01
RMM:   5    -0.281982530320E+02   -0.50438E+00   -0.26029E-02   162   0.412E-01    0.124E-01
RMM:   6    -0.282406193559E+02   -0.42366E-01   -0.72079E-04   167   0.800E-02    0.597E-02
RMM:   7    -0.282772674070E+02   -0.36648E-01   -0.51847E-04   146   0.704E-02    0.508E-03
RMM:   8    -0.282795689659E+02   -0.23016E-02   -0.13435E-05   171   0.889E-03    0.279E-03
RMM:   9    -0.282796581208E+02   -0.89155E-04   -0.65734E-07   173   0.239E-03    0.654E-04
RMM:  10    -0.282799155400E+02   -0.25742E-03   -0.11429E-07   169   0.909E-04    0.998E-05
RMM:  11    -0.282799166175E+02   -0.10775E-05   -0.26205E-08   166   0.117E-04    0.373E-05
RMM:  12    -0.282799137954E+02    0.28221E-05   -0.29572E-08   163   0.861E-05    0.978E-06
 change of polarisation eV/A/(eV/A) component  1 :    50.521     0.036    -0.135
 dielectric tensor                  component  1 :    56.857     0.040    -0.149
 Linear response to external field, progress :
  Direction:   2
       N       E                     dE             d eps       ncg     rms          rms(c)
RMM:   1    -0.244747881822E+02   -0.24475E+02   -0.14158E+02   223   0.664E+00
RMM:   2    -0.263984832264E+02   -0.19237E+01   -0.11129E-01   161   0.844E-01    0.854E+00
RMM:   3    -0.259523055309E+02    0.44618E+00   -0.28367E-01   169   0.122E+00    0.500E+00
RMM:   4    -0.276882422343E+02   -0.17359E+01   -0.35392E-01   156   0.148E+00    0.860E-01
RMM:   5    -0.281778441597E+02   -0.48960E+00   -0.21826E-02   174   0.385E-01    0.139E-01
RMM:   6    -0.282396058264E+02   -0.61762E-01   -0.78001E-04   175   0.829E-02    0.715E-02
RMM:   7    -0.282802919906E+02   -0.40686E-01   -0.66119E-04   157   0.821E-02    0.537E-03
RMM:   8    -0.282838502495E+02   -0.35583E-02   -0.21492E-05   186   0.113E-02    0.277E-03
RMM:   9    -0.282839014317E+02   -0.51182E-04   -0.41086E-07   185   0.193E-03    0.104E-03
RMM:  10    -0.282842177825E+02   -0.31635E-03   -0.86074E-08   184   0.135E-03    0.155E-04
RMM:  11    -0.282842081939E+02    0.95886E-05    0.82360E-08   182   0.164E-04    0.384E-05
RMM:  12    -0.282842086900E+02   -0.49610E-06    0.87815E-08   179   0.912E-05    0.129E-05
RMM:  13    -0.282842094834E+02   -0.79348E-06    0.90558E-08   179   0.890E-05    0.315E-06
 change of polarisation eV/A/(eV/A) component  2 :     0.036    50.529     0.099
 dielectric tensor                  component  2 :     0.040    56.866     0.109
 Linear response to external field, progress :
  Direction:   3
       N       E                     dE             d eps       ncg     rms          rms(c)
RMM:   1    -0.244785569580E+02   -0.24479E+02   -0.14162E+02   222   0.666E+00
RMM:   2    -0.263984903005E+02   -0.19199E+01   -0.11064E-01   162   0.839E-01    0.854E+00
RMM:   3    -0.259524123473E+02    0.44608E+00   -0.29861E-01   166   0.123E+00    0.500E+00
RMM:   4    -0.276894681107E+02   -0.17371E+01   -0.37443E-01   156   0.149E+00    0.859E-01
RMM:   5    -0.281778470931E+02   -0.48838E+00   -0.22059E-02   163   0.386E-01    0.139E-01
RMM:   6    -0.282400840708E+02   -0.62237E-01   -0.78925E-04   169   0.832E-02    0.714E-02
RMM:   7    -0.282805326488E+02   -0.40449E-01   -0.65923E-04   146   0.818E-02    0.540E-03
RMM:   8    -0.282841966704E+02   -0.36640E-02   -0.21350E-05   174   0.113E-02    0.278E-03
RMM:   9    -0.282842515108E+02   -0.54840E-04   -0.41438E-07   175   0.196E-03    0.102E-03
RMM:  10    -0.282845621630E+02   -0.31065E-03   -0.43753E-08   175   0.133E-03    0.157E-04
RMM:  11    -0.282845569579E+02    0.52051E-05    0.10130E-07   175   0.168E-04    0.384E-05
RMM:  12    -0.282845574184E+02   -0.46051E-06    0.10259E-07   174   0.953E-05    0.110E-05
RMM:  13    -0.282845580784E+02   -0.65995E-06    0.10697E-07   175   0.929E-05    0.353E-06
 change of polarisation eV/A/(eV/A) component  3 :    -0.135     0.099    50.529
 dielectric tensor                  component  3 :    -0.149     0.109    56.866
 running on   48 total cores
 distrk:  each k-point on   48 cores,    1 groups
 distr:  one band on    1 cores,   48 groups
 using from now: INCAR     
 vasp.5.3.3 18Dez12 (build Jan  9 2014 12:00:49) complex                        
  
 POSCAR found type information on POSCAR  Si
 POSCAR found :  1 types and       8 ions
 scaLAPACK will be used

 ----------------------------------------------------------------------------- 
|                                                                             |
|           W    W    AA    RRRRR   N    N  II  N    N   GGGG   !!!           |
|           W    W   A  A   R    R  NN   N  II  NN   N  G    G  !!!           |
|           W    W  A    A  R    R  N N  N  II  N N  N  G       !!!           |
|           W WW W  AAAAAA  RRRRR   N  N N  II  N  N N  G  GGG   !            |
|           WW  WW  A    A  R   R   N   NN  II  N   NN  G    G                |
|           W    W  A    A  R    R  N    N  II  N    N   GGGG   !!!           |
|                                                                             |
|      For optimal performance we recommend that you set                      |
|        NPAR = 4 - approx SQRT( number of cores)                             |
|      (number of cores/NPAR must be integer)                                 |
|      This setting will greatly improve the performance of VASP for DFT.     |
|      The default NPAR=number of cores might be grossly inefficient          |
|      on modern multi-core architectures or massively parallel machines.     |
|      Do your own testing.                                                   |
|      Unfortunately you need to use the default for hybrid, GW and RPA       |
|      calculations.                                                          |
|                                                                             |
 ----------------------------------------------------------------------------- 

 LDA part: xc-table for Ceperly-Alder, standard interpolation
 POSCAR found type information on POSCAR  Si
 POSCAR found :  1 types and       8 ions
 POSCAR, INCAR and KPOINTS ok, starting setup
 FFT: planning ...
 WAVECAR not read
 entering main loop
       N       E                     dE             d eps       ncg     rms          rms(c)
DAV:   1    -0.101315163002E+02   -0.10132E+02   -0.79561E+03    96   0.246E+02
DAV:   2    -0.344505193792E+02   -0.24319E+02   -0.24315E+02   144   0.326E+01
DAV:   3    -0.346178735734E+02   -0.16735E+00   -0.16735E+00    96   0.329E+00
DAV:   4    -0.346182282034E+02   -0.35463E-03   -0.35463E-03   192   0.177E-01
DAV:   5    -0.346182282064E+02   -0.30418E-08   -0.30440E-08    96   0.554E-04    0.793E+00
RMM:   6    -0.336165488057E+02    0.10017E+01   -0.31981E-01    96   0.120E+00    0.474E+00
RMM:   7    -0.331919059330E+02    0.42464E+00   -0.73884E-01    96   0.195E+00    0.463E-01
RMM:   8    -0.332238908508E+02   -0.31985E-01   -0.21642E-02    96   0.416E-01    0.749E-02
RMM:   9    -0.332250148059E+02   -0.11240E-02   -0.12583E-03   108   0.981E-02    0.417E-02
RMM:  10    -0.332251998002E+02   -0.18499E-03   -0.26036E-04   104   0.459E-02    0.577E-03
RMM:  11    -0.332251959751E+02    0.38251E-05   -0.42646E-06   114   0.590E-03    0.144E-03
RMM:  12    -0.332251963096E+02   -0.33451E-06   -0.43159E-07   125   0.194E-03    0.566E-04
RMM:  13    -0.332251962910E+02    0.18574E-07   -0.20076E-08   118   0.419E-04    0.186E-04
RMM:  14    -0.332251961614E+02    0.12967E-06   -0.25096E-09   103   0.141E-04    0.395E-05
RMM:  15    -0.332251961592E+02    0.21146E-08   -0.27294E-10    70   0.561E-05
   1 F= -.33225196E+02 E0= -.33225196E+02  d E =-.373216E-18
 Linear response reoptimize wavefunctions to high precision
DAV:   1    -0.332251961556E+02    0.36473E-08   -0.15172E-10   144   0.323E-05
DAV:   2    -0.332251961556E+02   -0.45475E-12   -0.25757E-12    96   0.155E-06
 Linear response G [H, r] |phi>, progress :
  Direction:   1
       N       E                     dE             d eps       ncg     rms
RMM:   1    -0.409582610704E+03   -0.40958E+03   -0.20206E+03   235   0.367E+01
RMM:   2    -0.374186878138E+03    0.35396E+02    0.38432E+02   167   0.629E+00
RMM:   3    -0.371330753498E+03    0.28561E+01    0.42557E+02   205   0.886E-01
RMM:   4    -0.357153470188E+03    0.14177E+02    0.56752E+02   223   0.448E-01
RMM:   5    -0.356810686582E+03    0.34278E+00    0.57096E+02   228   0.424E-01
RMM:   6    -0.358175468966E+03   -0.13648E+01    0.55731E+02   241   0.423E-01
 Linear response G [H, r] |phi>, progress :
  Direction:   2
       N       E                     dE             d eps       ncg     rms
RMM:   1    -0.453147180995E+03   -0.45315E+03   -0.24563E+03   241   0.373E+01
RMM:   2     0.327754020798E+03    0.78090E+03   -0.65310E+03   163   0.678E+00
RMM:   3     0.542980925833E+02   -0.27346E+03   -0.92520E+03   198   0.129E+00
RMM:   4     0.378411150810E+02   -0.16457E+02   -0.94164E+03   208   0.854E-01
RMM:   5     0.618201028578E+02    0.23979E+02   -0.91766E+03   229   0.824E-01
RMM:   6     0.560941965303E+02   -0.57259E+01   -0.92338E+03   239   0.821E-01
 Linear response G [H, r] |phi>, progress :
  Direction:   3
       N       E                     dE             d eps       ncg     rms
RMM:   1    -0.467388184141E+03   -0.46739E+03   -0.25987E+03   244   0.374E+01
RMM:   2    -0.338587757342E+03    0.12880E+03    0.54972E+03   159   0.694E+00
RMM:   3    -0.183742407735E+03    0.15485E+03    0.70594E+03   194   0.130E+00
RMM:   4    -0.199640332685E+03   -0.15898E+02    0.69006E+03   209   0.855E-01
RMM:   5    -0.193824738547E+03    0.58156E+01    0.69588E+03   226   0.825E-01
RMM:   6    -0.190423884446E+03    0.34009E+01    0.69928E+03   235   0.823E-01
 Linear response to external field (no local field effect), progress :
  Direction:   1
       N       E                     dE             d eps       ncg     rms          rms(c)
RMM:   1    -0.245114489667E+02   -0.24511E+02   -0.14196E+02   219   0.658E+00
RMM:   2    -0.263896818195E+02   -0.18782E+01   -0.95800E-02   162   0.791E-01
RMM:   3    -0.263902668345E+02   -0.58502E-03   -0.26909E-04   173   0.374E-02
RMM:   4    -0.263902687098E+02   -0.18753E-05   -0.12083E-06   173   0.246E-03
RMM:   5    -0.263902687169E+02   -0.71456E-08   -0.11605E-08   171   0.203E-04
 change of polarisation eV/A/(eV/A) component  1 :    52.781    -0.064     0.048
 dielectric tensor                  component  1 :    59.355    -0.071     0.053
 Linear response to external field (no local field effect), progress :
  Direction:   2
       N       E                     dE             d eps       ncg     rms          rms(c)
RMM:   1    -0.244695064661E+02   -0.24470E+02   -0.14154E+02   221   0.668E+00
RMM:   2    -0.263868840858E+02   -0.19174E+01   -0.11184E-01   162   0.853E-01
RMM:   3    -0.263875583369E+02   -0.67425E-03   -0.28298E-04   172   0.392E-02
RMM:   4    -0.263875603285E+02   -0.19916E-05   -0.12392E-06   169   0.259E-03
RMM:   5    -0.263875603356E+02   -0.70154E-08   -0.11651E-08   168   0.205E-04
 change of polarisation eV/A/(eV/A) component  2 :    -0.064    52.775    -0.230
 dielectric tensor                  component  2 :    -0.071    59.349    -0.255
 Linear response to external field (no local field effect), progress :
  Direction:   3
       N       E                     dE             d eps       ncg     rms          rms(c)
RMM:   1    -0.244637817722E+02   -0.24464E+02   -0.14149E+02   220   0.669E+00
RMM:   2    -0.263868590124E+02   -0.19231E+01   -0.11332E-01   159   0.861E-01
RMM:   3    -0.263875398311E+02   -0.68082E-03   -0.28426E-04   170   0.394E-02
RMM:   4    -0.263875418307E+02   -0.19996E-05   -0.12437E-06   170   0.261E-03
RMM:   5    -0.263875418377E+02   -0.70119E-08   -0.12117E-08   167   0.210E-04
 change of polarisation eV/A/(eV/A) component  3 :     0.048    -0.230    52.775
 dielectric tensor                  component  3 :     0.053    -0.255    59.349
 Linear response to external field, progress :
  Direction:   1
       N       E                     dE             d eps       ncg     rms          rms(c)
RMM:   1    -0.245114489667E+02   -0.24511E+02   -0.14196E+02   219   0.658E+00
RMM:   2    -0.263896818195E+02   -0.18782E+01   -0.95800E-02   162   0.791E-01    0.853E+00
RMM:   3    -0.259464880934E+02    0.44319E+00   -0.27101E-01   169   0.121E+00    0.500E+00
RMM:   4    -0.276914920094E+02   -0.17450E+01   -0.34629E-01   155   0.148E+00    0.850E-01
RMM:   5    -0.281882951268E+02   -0.49680E+00   -0.23188E-02   161   0.395E-01    0.125E-01
RMM:   6    -0.282394852266E+02   -0.51190E-01   -0.73212E-04   167   0.812E-02    0.627E-02
RMM:   7    -0.282740961784E+02   -0.34611E-01   -0.53641E-04   148   0.720E-02    0.527E-03
RMM:   8    -0.282774287963E+02   -0.33326E-02   -0.15318E-05   173   0.966E-03    0.273E-03
RMM:   9    -0.282774812495E+02   -0.52453E-04   -0.35181E-07   170   0.200E-03    0.958E-04
RMM:  10    -0.282777747765E+02   -0.29353E-03   -0.75692E-08   166   0.128E-03    0.102E-04
RMM:  11    -0.282777596882E+02    0.15088E-04    0.77823E-08   167   0.259E-04    0.393E-05
RMM:  12    -0.282777635620E+02   -0.38738E-05    0.89529E-08   166   0.243E-04    0.120E-05
RMM:  13    -0.282777618297E+02    0.17323E-05    0.89068E-08   167   0.242E-04    0.239E-06
 change of polarisation eV/A/(eV/A) component  1 :    50.518    -0.063     0.046
 dielectric tensor                  component  1 :    56.854    -0.070     0.051
 Linear response to external field, progress :
  Direction:   2
       N       E                     dE             d eps       ncg     rms          rms(c)
RMM:   1    -0.244695064661E+02   -0.24470E+02   -0.14154E+02   221   0.668E+00
RMM:   2    -0.263868840858E+02   -0.19174E+01   -0.11184E-01   162   0.853E-01    0.853E+00
RMM:   3    -0.259441495665E+02    0.44273E+00   -0.29407E-01   168   0.123E+00    0.500E+00
RMM:   4    -0.276899668721E+02   -0.17458E+01   -0.36648E-01   155   0.150E+00    0.849E-01
RMM:   5    -0.281862154382E+02   -0.49625E+00   -0.23652E-02   160   0.397E-01    0.124E-01
RMM:   6    -0.282371548594E+02   -0.50939E-01   -0.72145E-04   167   0.809E-02    0.629E-02
RMM:   7    -0.282720154224E+02   -0.34861E-01   -0.52160E-04   148   0.729E-02    0.519E-03
RMM:   8    -0.282749501778E+02   -0.29348E-02   -0.16488E-05   171   0.976E-03    0.277E-03
RMM:   9    -0.282750311710E+02   -0.80993E-04   -0.68218E-07   168   0.211E-03    0.834E-04
RMM:  10    -0.282753151425E+02   -0.28397E-03   -0.28884E-07   163   0.118E-03    0.115E-04
RMM:  11    -0.282753087573E+02    0.63852E-05   -0.15992E-07   168   0.241E-04    0.362E-05
RMM:  12    -0.282753101447E+02   -0.13873E-05   -0.17661E-07   168   0.211E-04    0.104E-05
RMM:  13    -0.282753100805E+02    0.64203E-07   -0.17591E-07   166   0.210E-04    0.302E-06
 change of polarisation eV/A/(eV/A) component  2 :    -0.063    50.514    -0.226
 dielectric tensor                  component  2 :    -0.070    56.850    -0.250
 Linear response to external field, progress :
  Direction:   3
       N       E                     dE             d eps       ncg     rms          rms(c)
RMM:   1    -0.244637817722E+02   -0.24464E+02   -0.14149E+02   220   0.669E+00
RMM:   2    -0.263868590124E+02   -0.19231E+01   -0.11332E-01   159   0.861E-01    0.853E+00
RMM:   3    -0.259439350228E+02    0.44292E+00   -0.27762E-01   167   0.122E+00    0.500E+00
RMM:   4    -0.276883531932E+02   -0.17444E+01   -0.34759E-01   152   0.148E+00    0.850E-01
RMM:   5    -0.281845333616E+02   -0.49618E+00   -0.23192E-02   160   0.395E-01    0.125E-01
RMM:   6    -0.282354533797E+02   -0.50920E-01   -0.69994E-04   167   0.798E-02    0.647E-02
RMM:   7    -0.282715442908E+02   -0.36091E-01   -0.54586E-04   146   0.748E-02    0.521E-03
RMM:   8    -0.282746581098E+02   -0.31138E-02   -0.17755E-05   173   0.101E-02    0.277E-03
RMM:   9    -0.282747305002E+02   -0.72390E-04   -0.68426E-07   172   0.209E-03    0.869E-04
RMM:  10    -0.282750199809E+02   -0.28948E-03   -0.28721E-07   164   0.122E-03    0.123E-04
RMM:  11    -0.282750160604E+02    0.39205E-05   -0.17916E-07   167   0.275E-04    0.368E-05
RMM:  12    -0.282750167193E+02   -0.65892E-06   -0.19670E-07   167   0.245E-04    0.108E-05
RMM:  13    -0.282750171036E+02   -0.38423E-06   -0.19666E-07   168   0.244E-04    0.301E-06
 change of polarisation eV/A/(eV/A) component  3 :     0.046    -0.226    50.514
 dielectric tensor                  component  3 :     0.051    -0.250    56.849
 running on   48 total cores
 distrk:  each k-point on   48 cores,    1 groups
 distr:  one band on    1 cores,   48 groups
 using from now: INCAR     
 vasp.5.3.3 18Dez12 (build Jan  9 2014 12:00:49) complex                        
  
 POSCAR found type information on POSCAR  Si
 POSCAR found :  1 types and       8 ions
 scaLAPACK will be used

 ----------------------------------------------------------------------------- 
|                                                                             |
|           W    W    AA    RRRRR   N    N  II  N    N   GGGG   !!!           |
|           W    W   A  A   R    R  NN   N  II  NN   N  G    G  !!!           |
|           W    W  A    A  R    R  N N  N  II  N N  N  G       !!!           |
|           W WW W  AAAAAA  RRRRR   N  N N  II  N  N N  G  GGG   !            |
|           WW  WW  A    A  R   R   N   NN  II  N   NN  G    G                |
|           W    W  A    A  R    R  N    N  II  N    N   GGGG   !!!           |
|                                                                             |
|      For optimal performance we recommend that you set                      |
|        NPAR = 4 - approx SQRT( number of cores)                             |
|      (number of cores/NPAR must be integer)                                 |
|      This setting will greatly improve the performance of VASP for DFT.     |
|      The default NPAR=number of cores might be grossly inefficient          |
|      on modern multi-core architectures or massively parallel machines.     |
|      Do your own testing.                                                   |
|      Unfortunately you need to use the default for hybrid, GW and RPA       |
|      calculations.                                                          |
|                                                                             |
 ----------------------------------------------------------------------------- 

 LDA part: xc-table for Ceperly-Alder, standard interpolation
 POSCAR found type information on POSCAR  Si
 POSCAR found :  1 types and       8 ions
 POSCAR, INCAR and KPOINTS ok, starting setup
 FFT: planning ...
 WAVECAR not read
 entering main loop
       N       E                     dE             d eps       ncg     rms          rms(c)
DAV:   1    -0.101420160652E+02   -0.10142E+02   -0.79561E+03    96   0.246E+02
DAV:   2    -0.344508091757E+02   -0.24309E+02   -0.24307E+02   144   0.326E+01
DAV:   3    -0.346178750433E+02   -0.16707E+00   -0.16707E+00    96   0.330E+00
DAV:   4    -0.346182292267E+02   -0.35418E-03   -0.35418E-03   192   0.177E-01
DAV:   5    -0.346182292298E+02   -0.30541E-08   -0.30527E-08    96   0.554E-04    0.793E+00
RMM:   6    -0.336165502047E+02    0.10017E+01   -0.31986E-01    96   0.120E+00    0.474E+00
RMM:   7    -0.331919085868E+02    0.42464E+00   -0.73893E-01    96   0.195E+00    0.463E-01
RMM:   8    -0.332238934301E+02   -0.31985E-01   -0.21647E-02    96   0.416E-01    0.749E-02
RMM:   9    -0.332250167026E+02   -0.11233E-02   -0.12579E-03   108   0.981E-02    0.417E-02
RMM:  10    -0.332252018251E+02   -0.18512E-03   -0.26234E-04   104   0.460E-02    0.591E-03
RMM:  11    -0.332251980220E+02    0.38031E-05   -0.44563E-06   113   0.604E-03    0.145E-03
RMM:  12    -0.332251983623E+02   -0.34028E-06   -0.41373E-07   125   0.190E-03    0.546E-04
RMM:  13    -0.332251983545E+02    0.77854E-08   -0.19460E-08   118   0.405E-04
   1 F= -.33225198E+02 E0= -.33225198E+02  d E =-.258800E-18
 Linear response reoptimize wavefunctions to high precision
DAV:   1    -0.332251982223E+02    0.13221E-06   -0.45174E-09   144   0.154E-04
DAV:   2    -0.332251982223E+02   -0.37517E-11   -0.44591E-11    96   0.182E-05
 Linear response G [H, r] |phi>, progress :
  Direction:   1
       N       E                     dE             d eps       ncg     rms
RMM:   1    -0.457051821556E+03   -0.45705E+03   -0.24953E+03   235   0.369E+01
RMM:   2    -0.157188904196E+03    0.29986E+03   -0.46087E+02   164   0.631E+00
RMM:   3    -0.151571185624E+03    0.56177E+01   -0.39193E+02   202   0.893E-01
RMM:   4    -0.156723334821E+03   -0.51521E+01   -0.44328E+02   206   0.458E-01
RMM:   5    -0.152687511798E+03    0.40358E+01   -0.40291E+02   233   0.437E-01
RMM:   6    -0.160022995571E+03   -0.73355E+01   -0.47627E+02   241   0.434E-01
 Linear response G [H, r] |phi>, progress :
  Direction:   2
       N       E                     dE             d eps       ncg     rms
RMM:   1    -0.462201873899E+03   -0.46220E+03   -0.25468E+03   241   0.372E+01
RMM:   2    -0.765595045614E+03   -0.30339E+03    0.75787E+03   171   0.679E+00
RMM:   3    -0.563858685926E+03    0.20174E+03    0.96096E+03   211   0.130E+00
RMM:   4    -0.538864291945E+03    0.24994E+02    0.98597E+03   219   0.868E-01
RMM:   5    -0.544437789151E+03   -0.55735E+01    0.98040E+03   237   0.839E-01
RMM:   6    -0.547363163339E+03   -0.29254E+01    0.97747E+03   247   0.836E-01
 Linear response G [H, r] |phi>, progress :
  Direction:   3
       N       E                     dE             d eps       ncg     rms
RMM:   1    -0.465665821286E+03   -0.46567E+03   -0.25815E+03   244   0.372E+01
RMM:   2    -0.112294654463E+03    0.35337E+03   -0.44524E+03   161   0.693E+00
RMM:   3    -0.322567138094E+03   -0.21027E+03   -0.65414E+03   199   0.131E+00
RMM:   4    -0.355306986894E+03   -0.32740E+02   -0.68686E+03   211   0.868E-01
RMM:   5    -0.335683283059E+03    0.19624E+02   -0.66724E+03   233   0.837E-01
RMM:   6    -0.334622949604E+03    0.10603E+01   -0.66618E+03   246   0.836E-01
 Linear response to external field (no local field effect), progress :
  Direction:   1
       N       E                     dE             d eps       ncg     rms          rms(c)
RMM:   1    -0.245158032683E+02   -0.24516E+02   -0.14198E+02   219   0.658E+00
RMM:   2    -0.263937322570E+02   -0.18779E+01   -0.95668E-02   166   0.791E-01
RMM:   3    -0.263943160104E+02   -0.58375E-03   -0.26943E-04   173   0.374E-02
RMM:   4    -0.263943178848E+02   -0.18744E-05   -0.12185E-06   171   0.247E-03
RMM:   5    -0.263943178919E+02   -0.70830E-08   -0.17344E-08   169   0.226E-04
 change of polarisation eV/A/(eV/A) component  1 :    52.789     0.061    -0.037
 dielectric tensor                  component  1 :    59.364     0.068    -0.041
 Linear response to external field (no local field effect), progress :
  Direction:   2
       N       E                     dE             d eps       ncg     rms          rms(c)
RMM:   1    -0.244674262659E+02   -0.24467E+02   -0.14153E+02   221   0.668E+00
RMM:   2    -0.263843187667E+02   -0.19169E+01   -0.11173E-01   163   0.853E-01
RMM:   3    -0.263849927330E+02   -0.67397E-03   -0.28250E-04   172   0.392E-02
RMM:   4    -0.263849947206E+02   -0.19877E-05   -0.12406E-06   172   0.259E-03
RMM:   5    -0.263849947277E+02   -0.71116E-08   -0.16975E-08   169   0.230E-04
 change of polarisation eV/A/(eV/A) component  2 :     0.061    52.770     0.217
 dielectric tensor                  component  2 :     0.068    59.343     0.240
 Linear response to external field (no local field effect), progress :
  Direction:   3
       N       E                     dE             d eps       ncg     rms          rms(c)
RMM:   1    -0.244631212646E+02   -0.24463E+02   -0.14148E+02   221   0.669E+00
RMM:   2    -0.263860496059E+02   -0.19229E+01   -0.11330E-01   162   0.862E-01
RMM:   3    -0.263867304838E+02   -0.68088E-03   -0.28414E-04   173   0.394E-02
RMM:   4    -0.263867324849E+02   -0.20011E-05   -0.12533E-06   173   0.262E-03
RMM:   5    -0.263867324920E+02   -0.70599E-08   -0.22403E-08   169   0.243E-04
 change of polarisation eV/A/(eV/A) component  3 :    -0.037     0.217    52.773
 dielectric tensor                  component  3 :    -0.041     0.240    59.347
 Linear response to external field, progress :
  Direction:   1
       N       E                     dE             d eps       ncg     rms          rms(c)
RMM:   1    -0.245158032683E+02   -0.24516E+02   -0.14198E+02   219   0.658E+00
RMM:   2    -0.263937322570E+02   -0.18779E+01   -0.95668E-02   166   0.791E-01    0.853E+00
RMM:   3    -0.259502792755E+02    0.44345E+00   -0.28451E-01   169   0.122E+00    0.500E+00
RMM:   4    -0.276950029627E+02   -0.17447E+01   -0.35067E-01   155   0.149E+00    0.850E-01
RMM:   5    -0.281925805430E+02   -0.49758E+00   -0.23446E-02   160   0.396E-01    0.125E-01
RMM:   6    -0.282439235565E+02   -0.51343E-01   -0.73871E-04   165   0.813E-02    0.628E-02
RMM:   7    -0.282783828399E+02   -0.34459E-01   -0.54328E-04   151   0.719E-02    0.534E-03
RMM:   8    -0.282818208513E+02   -0.34380E-02   -0.15708E-05   172   0.975E-03    0.272E-03
RMM:   9    -0.282818591533E+02   -0.38302E-04   -0.69483E-07   169   0.196E-03    0.998E-04
RMM:  10    -0.282821623430E+02   -0.30319E-03   -0.45360E-07   165   0.134E-03    0.101E-04
RMM:  11    -0.282821448905E+02    0.17453E-04   -0.32222E-07   170   0.292E-04    0.396E-05
RMM:  12    -0.282821487218E+02   -0.38312E-05   -0.31813E-07   168   0.279E-04    0.123E-05
RMM:  13    -0.282821468383E+02    0.18835E-05   -0.31869E-07   166   0.278E-04    0.297E-06
 change of polarisation eV/A/(eV/A) component  1 :    50.526     0.061    -0.038
 dielectric tensor                  component  1 :    56.862     0.067    -0.042
 Linear response to external field, progress :
  Direction:   2
       N       E                     dE             d eps       ncg     rms          rms(c)
RMM:   1    -0.244674262659E+02   -0.24467E+02   -0.14153E+02   221   0.668E+00
RMM:   2    -0.263843187667E+02   -0.19169E+01   -0.11173E-01   163   0.853E-01    0.853E+00
RMM:   3    -0.259416830578E+02    0.44264E+00   -0.28397E-01   165   0.122E+00    0.500E+00
RMM:   4    -0.276867079246E+02   -0.17450E+01   -0.35377E-01   158   0.149E+00    0.849E-01
RMM:   5    -0.281832881722E+02   -0.49658E+00   -0.23414E-02   160   0.396E-01    0.124E-01
RMM:   6    -0.282340667797E+02   -0.50779E-01   -0.71793E-04   167   0.806E-02    0.631E-02
RMM:   7    -0.282691677539E+02   -0.35101E-01   -0.52606E-04   149   0.732E-02    0.517E-03
RMM:   8    -0.282721386968E+02   -0.29709E-02   -0.16561E-05   173   0.983E-03    0.277E-03
RMM:   9    -0.282722161229E+02   -0.77426E-04   -0.47703E-07   165   0.213E-03    0.830E-04
RMM:  10    -0.282724979285E+02   -0.28181E-03   -0.65392E-08   161   0.118E-03    0.120E-04
RMM:  11    -0.282724949542E+02    0.29743E-05    0.54617E-08   167   0.303E-04    0.366E-05
RMM:  12    -0.282724959545E+02   -0.10004E-05    0.51910E-08   167   0.272E-04    0.107E-05
RMM:  13    -0.282724961800E+02   -0.22542E-06    0.53031E-08   167   0.271E-04    0.327E-06
 change of polarisation eV/A/(eV/A) component  2 :     0.061    50.509     0.213
 dielectric tensor                  component  2 :     0.067    56.844     0.236
 Linear response to external field, progress :
  Direction:   3
       N       E                     dE             d eps       ncg     rms          rms(c)
RMM:   1    -0.244631212646E+02   -0.24463E+02   -0.14148E+02   221   0.669E+00
RMM:   2    -0.263860496059E+02   -0.19229E+01   -0.11330E-01   162   0.862E-01    0.853E+00
RMM:   3    -0.259432294070E+02    0.44282E+00   -0.27522E-01   168   0.121E+00    0.500E+00
RMM:   4    -0.276877334875E+02   -0.17445E+01   -0.34688E-01   152   0.148E+00    0.850E-01
RMM:   5    -0.281837323378E+02   -0.49600E+00   -0.23173E-02   161   0.395E-01    0.125E-01
RMM:   6    -0.282345661774E+02   -0.50834E-01   -0.70038E-04   167   0.797E-02    0.647E-02
RMM:   7    -0.282707951528E+02   -0.36229E-01   -0.55171E-04   146   0.751E-02    0.522E-03
RMM:   8    -0.282737994499E+02   -0.30043E-02   -0.17299E-05   173   0.100E-02    0.277E-03
RMM:   9    -0.282738691915E+02   -0.69742E-04   -0.59582E-07   167   0.210E-03    0.878E-04
RMM:  10    -0.282741585686E+02   -0.28938E-03   -0.21053E-07   164   0.124E-03    0.122E-04
RMM:  11    -0.282741531263E+02    0.54423E-05   -0.82802E-08   167   0.334E-04    0.369E-05
RMM:  12    -0.282741542073E+02   -0.10810E-05   -0.90560E-08   167   0.309E-04    0.996E-06
 change of polarisation eV/A/(eV/A) component  3 :    -0.038     0.213    50.512
 dielectric tensor                  component  3 :    -0.042     0.236    56.847
 running on   48 total cores
 distrk:  each k-point on   48 cores,    1 groups
 distr:  one band on    1 cores,   48 groups
 using from now: INCAR     
 vasp.5.3.3 18Dez12 (build Jan  9 2014 12:00:49) complex                        
  
 POSCAR found type information on POSCAR  Si
 POSCAR found :  1 types and       8 ions
 scaLAPACK will be used

 ----------------------------------------------------------------------------- 
|                                                                             |
|           W    W    AA    RRRRR   N    N  II  N    N   GGGG   !!!           |
|           W    W   A  A   R    R  NN   N  II  NN   N  G    G  !!!           |
|           W    W  A    A  R    R  N N  N  II  N N  N  G       !!!           |
|           W WW W  AAAAAA  RRRRR   N  N N  II  N  N N  G  GGG   !            |
|           WW  WW  A    A  R   R   N   NN  II  N   NN  G    G                |
|           W    W  A    A  R    R  N    N  II  N    N   GGGG   !!!           |
|                                                                             |
|      For optimal performance we recommend that you set                      |
|        NPAR = 4 - approx SQRT( number of cores)                             |
|      (number of cores/NPAR must be integer)                                 |
|      This setting will greatly improve the performance of VASP for DFT.     |
|      The default NPAR=number of cores might be grossly inefficient          |
|      on modern multi-core architectures or massively parallel machines.     |
|      Do your own testing.                                                   |
|      Unfortunately you need to use the default for hybrid, GW and RPA       |
|      calculations.                                                          |
|                                                                             |
 ----------------------------------------------------------------------------- 

 LDA part: xc-table for Ceperly-Alder, standard interpolation
 POSCAR found type information on POSCAR  Si
 POSCAR found :  1 types and       8 ions
 POSCAR, INCAR and KPOINTS ok, starting setup
 FFT: planning ...
 WAVECAR not read
 entering main loop
       N       E                     dE             d eps       ncg     rms          rms(c)
DAV:   1    -0.101649095536E+02   -0.10165E+02   -0.79565E+03    96   0.246E+02
DAV:   2    -0.344502040003E+02   -0.24285E+02   -0.24283E+02   144   0.326E+01
DAV:   3    -0.346172475305E+02   -0.16704E+00   -0.16704E+00    96   0.332E+00
DAV:   4    -0.346176020853E+02   -0.35455E-03   -0.35455E-03   192   0.177E-01
DAV:   5    -0.346176020884E+02   -0.30535E-08   -0.30543E-08    96   0.555E-04    0.793E+00
RMM:   6    -0.336158808869E+02    0.10017E+01   -0.31990E-01    96   0.120E+00    0.474E+00
RMM:   7    -0.331912119148E+02    0.42467E+00   -0.73901E-01    96   0.196E+00    0.462E-01
RMM:   8    -0.332231966094E+02   -0.31985E-01   -0.21626E-02    96   0.416E-01    0.748E-02
RMM:   9    -0.332243261032E+02   -0.11295E-02   -0.12617E-03   107   0.982E-02    0.417E-02
RMM:  10    -0.332245101786E+02   -0.18408E-03   -0.25045E-04   104   0.450E-02    0.513E-03
RMM:  11    -0.332245060159E+02    0.41628E-05   -0.37401E-06   116   0.543E-03    0.149E-03
RMM:  12    -0.332245064820E+02   -0.46618E-06   -0.44726E-07   126   0.194E-03    0.576E-04
RMM:  13    -0.332245064436E+02    0.38471E-07   -0.21818E-08   117   0.423E-04    0.197E-04
RMM:  14    -0.332245062897E+02    0.15390E-06   -0.28556E-09    99   0.146E-04    0.377E-05
RMM:  15    -0.332245062984E+02   -0.86965E-08   -0.25814E-10    68   0.552E-05
   1 F= -.33224506E+02 E0= -.33224506E+02  d E =-.293865E-17
 Linear response reoptimize wavefunctions to high precision
DAV:   1    -0.332245062918E+02    0.65903E-08   -0.20025E-10   144   0.379E-05
DAV:   2    -0.332245062918E+02   -0.11369E-11    0.79359E-12    96   0.214E-06
 Linear response G [H, r] |phi>, progress :
  Direction:   1
       N       E                     dE             d eps       ncg     rms
RMM:   1    -0.463944197285E+03   -0.46394E+03   -0.25643E+03   247   0.375E+01
RMM:   2    -0.183998978884E+03    0.27995E+03   -0.27339E+02   163   0.699E+00
RMM:   3    -0.173531561694E+03    0.10467E+02   -0.15487E+02   202   0.874E-01
RMM:   4    -0.174733790876E+03   -0.12022E+01   -0.16671E+02   219   0.335E-01
RMM:   5    -0.171719432850E+03    0.30144E+01   -0.13656E+02   264   0.307E-01
RMM:   6    -0.171871999964E+03   -0.15257E+00   -0.13809E+02   271   0.306E-01
 Linear response G [H, r] |phi>, progress :
  Direction:   2
       N       E                     dE             d eps       ncg     rms
RMM:   1    -0.433993074333E+03   -0.43399E+03   -0.22647E+03   244   0.373E+01
RMM:   2    -0.270915853551E+03    0.16308E+03   -0.13801E+02   162   0.667E+00
RMM:   3    -0.261487958757E+03    0.94279E+01   -0.30565E+01   196   0.802E-01
RMM:   4    -0.260722669137E+03    0.76529E+00   -0.22737E+01   221   0.280E-01
RMM:   5    -0.259855968519E+03    0.86670E+00   -0.14067E+01   256   0.254E-01
RMM:   6    -0.258456092347E+03    0.13999E+01   -0.68618E-02   262   0.252E-01
RMM:   7    -0.259953521583E+03   -0.14974E+01   -0.15042E+01   265   0.251E-01
 Linear response G [H, r] |phi>, progress :
  Direction:   3
       N       E                     dE             d eps       ncg     rms
RMM:   1    -0.453099071774E+03   -0.45310E+03   -0.24558E+03   247   0.375E+01
RMM:   2    -0.311448343523E+03    0.14165E+03    0.11085E+02   169   0.689E+00
RMM:   3    -0.312459516648E+03   -0.10112E+01    0.11430E+02   197   0.812E-01
RMM:   4    -0.317924668033E+03   -0.54652E+01    0.59815E+01   226   0.276E-01
RMM:   5    -0.316619713964E+03    0.13050E+01    0.72867E+01   257   0.249E-01
RMM:   6    -0.316523511382E+03    0.96203E-01    0.73829E+01   267   0.247E-01
RMM:   7    -0.316286589353E+03    0.23692E+00    0.76198E+01   267   0.247E-01
 Linear response to external field (no local field effect), progress :
  Direction:   1
       N       E                     dE             d eps       ncg     rms          rms(c)
RMM:   1    -0.244759067200E+02   -0.24476E+02   -0.14159E+02   219   0.669E+00
RMM:   2    -0.263974706122E+02   -0.19216E+01   -0.11189E-01   164   0.859E-01
RMM:   3    -0.263981428602E+02   -0.67225E-03   -0.28336E-04   173   0.394E-02
RMM:   4    -0.263981448529E+02   -0.19926E-05   -0.12484E-06   177   0.262E-03
RMM:   5    -0.263981448600E+02   -0.70977E-08   -0.17156E-08   173   0.233E-04
 change of polarisation eV/A/(eV/A) component  1 :    52.796     0.315    -0.303
 dielectric tensor                  component  1 :    59.372     0.349    -0.335
 Linear response to external field (no local field effect), progress :
  Direction:   2
       N       E                     dE             d eps       ncg     rms          rms(c)
RMM:   1    -0.244594994708E+02   -0.24459E+02   -0.14141E+02   219   0.666E+00
RMM:   2    -0.264014000172E+02   -0.19419E+01   -0.11769E-01   161   0.864E-01
RMM:   3    -0.264020951011E+02   -0.69508E-03   -0.28842E-04   168   0.390E-02
RMM:   4    -0.264020971204E+02   -0.20193E-05   -0.12555E-06   170   0.258E-03
RMM:   5    -0.264020971275E+02   -0.71051E-08   -0.18853E-08   168   0.227E-04
 change of polarisation eV/A/(eV/A) component  2 :     0.315    52.804     0.300
 dielectric tensor                  component  2 :     0.349    59.381     0.332
 Linear response to external field (no local field effect), progress :
  Direction:   3
       N       E                     dE             d eps       ncg     rms          rms(c)
RMM:   1    -0.244834871871E+02   -0.24483E+02   -0.14167E+02   220   0.672E+00
RMM:   2    -0.263953076032E+02   -0.19118E+01   -0.10900E-01   161   0.853E-01
RMM:   3    -0.263959666538E+02   -0.65905E-03   -0.28028E-04   174   0.395E-02
RMM:   4    -0.263959686253E+02   -0.19715E-05   -0.12430E-06   175   0.262E-03
RMM:   5    -0.263959686324E+02   -0.70930E-08   -0.19070E-08   172   0.232E-04
 change of polarisation eV/A/(eV/A) component  3 :    -0.303     0.300    52.792
 dielectric tensor                  component  3 :    -0.335     0.332    59.368
 Linear response to external field, progress :
  Direction:   1
       N       E                     dE             d eps       ncg     rms          rms(c)
RMM:   1    -0.244759067200E+02   -0.24476E+02   -0.14159E+02   219   0.669E+00
RMM:   2    -0.263974706122E+02   -0.19216E+01   -0.11189E-01   164   0.859E-01    0.854E+00
RMM:   3    -0.259531426384E+02    0.44433E+00   -0.28601E-01   173   0.122E+00    0.500E+00
RMM:   4    -0.276960784466E+02   -0.17429E+01   -0.35662E-01   159   0.149E+00    0.853E-01
RMM:   5    -0.281908654062E+02   -0.49479E+00   -0.23019E-02   166   0.393E-01    0.128E-01
RMM:   6    -0.282437447328E+02   -0.52879E-01   -0.70068E-04   169   0.795E-02    0.672E-02
RMM:   7    -0.282809220635E+02   -0.37177E-01   -0.57338E-04   152   0.767E-02    0.555E-03
RMM:   8    -0.282847854048E+02   -0.38633E-02   -0.19548E-05   177   0.111E-02    0.274E-03
RMM:   9    -0.282847841006E+02    0.13041E-05   -0.16558E-07   171   0.188E-03    0.107E-03
RMM:  10    -0.282851156260E+02   -0.33153E-03    0.78098E-08   167   0.143E-03    0.132E-04
RMM:  11    -0.282851034073E+02    0.12219E-04    0.26460E-07   168   0.285E-04    0.416E-05
RMM:  12    -0.282851067856E+02   -0.33782E-05    0.28877E-07   169   0.267E-04    0.142E-05
RMM:  13    -0.282851061683E+02    0.61724E-06    0.28755E-07   171   0.266E-04    0.377E-06
 change of polarisation eV/A/(eV/A) component  1 :    50.531     0.311    -0.300
 dielectric tensor                  component  1 :    56.868     0.344    -0.331
 Linear response to external field, progress :
  Direction:   2
       N       E                     dE             d eps       ncg     rms          rms(c)
RMM:   1    -0.244594994708E+02   -0.24459E+02   -0.14141E+02   219   0.666E+00
RMM:   2    -0.264014000172E+02   -0.19419E+01   -0.11769E-01   161   0.864E-01    0.854E+00
RMM:   3    -0.259565094039E+02    0.44489E+00   -0.28321E-01   166   0.122E+00    0.500E+00
RMM:   4    -0.276986039943E+02   -0.17421E+01   -0.36069E-01   150   0.149E+00    0.855E-01
RMM:   5    -0.281918338822E+02   -0.49323E+00   -0.22750E-02   159   0.391E-01    0.130E-01
RMM:   6    -0.282464209226E+02   -0.54587E-01   -0.71153E-04   165   0.798E-02    0.687E-02
RMM:   7    -0.282845642170E+02   -0.38143E-01   -0.59829E-04   147   0.781E-02    0.562E-03
RMM:   8    -0.282885923698E+02   -0.40282E-02   -0.21407E-05   172   0.114E-02    0.274E-03
RMM:   9    -0.282885931249E+02   -0.75513E-06   -0.10147E-06   170   0.189E-03    0.109E-03
RMM:  10    -0.282889260865E+02   -0.33296E-03   -0.75894E-07   168   0.146E-03    0.138E-04
RMM:  11    -0.282889129621E+02    0.13124E-04   -0.59479E-07   170   0.347E-04    0.418E-05
RMM:  12    -0.282889160345E+02   -0.30725E-05   -0.62129E-07   170   0.328E-04    0.147E-05
RMM:  13    -0.282889155495E+02    0.48506E-06   -0.62198E-07   171   0.327E-04    0.370E-06
 change of polarisation eV/A/(eV/A) component  2 :     0.311    50.538     0.297
 dielectric tensor                  component  2 :     0.344    56.875     0.328
 Linear response to external field, progress :
  Direction:   3
       N       E                     dE             d eps       ncg     rms          rms(c)
RMM:   1    -0.244834871871E+02   -0.24483E+02   -0.14167E+02   220   0.672E+00
RMM:   2    -0.263953076032E+02   -0.19118E+01   -0.10900E-01   161   0.853E-01    0.854E+00
RMM:   3    -0.259514703278E+02    0.44384E+00   -0.27624E-01   173   0.122E+00    0.500E+00
RMM:   4    -0.276948492486E+02   -0.17434E+01   -0.34125E-01   159   0.148E+00    0.852E-01
RMM:   5    -0.281914747433E+02   -0.49663E+00   -0.23022E-02   165   0.394E-01    0.127E-01
RMM:   6    -0.282432434639E+02   -0.51769E-01   -0.69828E-04   171   0.800E-02    0.655E-02
RMM:   7    -0.282793631528E+02   -0.36120E-01   -0.54016E-04   149   0.748E-02    0.550E-03
RMM:   8    -0.282830779800E+02   -0.37148E-02   -0.18942E-05   177   0.109E-02    0.271E-03
RMM:   9    -0.282830615575E+02    0.16422E-04   -0.24521E-07   171   0.186E-03    0.107E-03
RMM:  10    -0.282833991463E+02   -0.33759E-03   -0.42928E-08   166   0.145E-03    0.120E-04
RMM:  11    -0.282833840664E+02    0.15080E-04    0.13116E-07   168   0.325E-04    0.413E-05
RMM:  12    -0.282833884805E+02   -0.44141E-05    0.13341E-07   170   0.310E-04    0.136E-05
RMM:  13    -0.282833873794E+02    0.11011E-05    0.13253E-07   172   0.309E-04    0.337E-06
 change of polarisation eV/A/(eV/A) component  3 :    -0.300     0.297    50.528
 dielectric tensor                  component  3 :    -0.331     0.328    56.864
 running on   48 total cores
 distrk:  each k-point on   48 cores,    1 groups
 distr:  one band on    1 cores,   48 groups
 using from now: INCAR     
 vasp.5.3.3 18Dez12 (build Jan  9 2014 12:00:49) complex                        
  
 POSCAR found type information on POSCAR  Si
 POSCAR found :  1 types and       8 ions
 scaLAPACK will be used

 ----------------------------------------------------------------------------- 
|                                                                             |
|           W    W    AA    RRRRR   N    N  II  N    N   GGGG   !!!           |
|           W    W   A  A   R    R  NN   N  II  NN   N  G    G  !!!           |
|           W    W  A    A  R    R  N N  N  II  N N  N  G       !!!           |
|           W WW W  AAAAAA  RRRRR   N  N N  II  N  N N  G  GGG   !            |
|           WW  WW  A    A  R   R   N   NN  II  N   NN  G    G                |
|           W    W  A    A  R    R  N    N  II  N    N   GGGG   !!!           |
|                                                                             |
|      For optimal performance we recommend that you set                      |
|        NPAR = 4 - approx SQRT( number of cores)                             |
|      (number of cores/NPAR must be integer)                                 |
|      This setting will greatly improve the performance of VASP for DFT.     |
|      The default NPAR=number of cores might be grossly inefficient          |
|      on modern multi-core architectures or massively parallel machines.     |
|      Do your own testing.                                                   |
|      Unfortunately you need to use the default for hybrid, GW and RPA       |
|      calculations.                                                          |
|                                                                             |
 ----------------------------------------------------------------------------- 

 LDA part: xc-table for Ceperly-Alder, standard interpolation
 POSCAR found type information on POSCAR  Si
 POSCAR found :  1 types and       8 ions
 POSCAR, INCAR and KPOINTS ok, starting setup
 FFT: planning ...
 WAVECAR not read
 entering main loop
       N       E                     dE             d eps       ncg     rms          rms(c)
DAV:   1    -0.101091877040E+02   -0.10109E+02   -0.79557E+03    96   0.246E+02
DAV:   2    -0.344498923921E+02   -0.24341E+02   -0.24338E+02   144   0.326E+01
DAV:   3    -0.346172499107E+02   -0.16736E+00   -0.16736E+00    96   0.333E+00
DAV:   4    -0.346176042176E+02   -0.35431E-03   -0.35431E-03   192   0.177E-01
DAV:   5    -0.346176042206E+02   -0.30401E-08   -0.30403E-08    96   0.555E-04    0.793E+00
RMM:   6    -0.336158818128E+02    0.10017E+01   -0.31986E-01    96   0.120E+00    0.474E+00
RMM:   7    -0.331912108285E+02    0.42467E+00   -0.73896E-01    96   0.195E+00    0.462E-01
RMM:   8    -0.332231956288E+02   -0.31985E-01   -0.21622E-02    96   0.416E-01    0.748E-02
RMM:   9    -0.332243262240E+02   -0.11306E-02   -0.12628E-03   108   0.983E-02    0.417E-02
RMM:  10    -0.332245099557E+02   -0.18373E-03   -0.25077E-04   104   0.450E-02    0.518E-03
RMM:  11    -0.332245058360E+02    0.41197E-05   -0.37379E-06   116   0.546E-03    0.149E-03
RMM:  12    -0.332245063127E+02   -0.47673E-06   -0.44034E-07   128   0.194E-03    0.573E-04
RMM:  13    -0.332245062576E+02    0.55149E-07   -0.20539E-08   117   0.414E-04    0.181E-04
RMM:  14    -0.332245061119E+02    0.14570E-06   -0.24010E-09    98   0.135E-04    0.426E-05
RMM:  15    -0.332245061223E+02   -0.10430E-07   -0.37355E-10    80   0.612E-05    0.215E-05
RMM:  16    -0.332245061172E+02    0.51469E-08    0.00000E+00    40   0.257E-05
   1 F= -.33224506E+02 E0= -.33224506E+02  d E =-.419739E-15
 Linear response reoptimize wavefunctions to high precision
DAV:   1    -0.332245061170E+02    0.11687E-09   -0.96732E-11    96   0.263E-05
DAV:   2    -0.332245061170E+02    0.34106E-12   -0.17764E-13    96   0.148E-06
 Linear response G [H, r] |phi>, progress :
  Direction:   1
       N       E                     dE             d eps       ncg     rms
RMM:   1    -0.472893320975E+03   -0.47289E+03   -0.26537E+03   247   0.375E+01
RMM:   2    -0.355147360413E+03    0.11775E+03    0.19017E+02   158   0.700E+00
RMM:   3    -0.358086268253E+03   -0.29389E+01    0.17466E+02   184   0.868E-01
RMM:   4    -0.352245832397E+03    0.58404E+01    0.23324E+02   208   0.323E-01
RMM:   5    -0.351968699301E+03    0.27713E+00    0.23601E+02   239   0.294E-01
RMM:   6    -0.351691030238E+03    0.27767E+00    0.23879E+02   252   0.292E-01
RMM:   7    -0.351541400980E+03    0.14963E+00    0.24029E+02   250   0.292E-01
 Linear response G [H, r] |phi>, progress :
  Direction:   2
       N       E                     dE             d eps       ncg     rms
RMM:   1    -0.471536221842E+03   -0.47154E+03   -0.26402E+03   244   0.373E+01
RMM:   2    -0.275725948609E+03    0.19581E+03    0.50247E+00   155   0.669E+00
RMM:   3    -0.274047541795E+03    0.16784E+01    0.35049E+01   181   0.794E-01
RMM:   4    -0.272668738118E+03    0.13788E+01    0.49008E+01   217   0.270E-01
RMM:   5    -0.273205167510E+03   -0.53643E+00    0.43645E+01   239   0.244E-01
RMM:   6    -0.272723175838E+03    0.48199E+00    0.48465E+01   256   0.242E-01
RMM:   7    -0.272298462287E+03    0.42471E+00    0.52712E+01   253   0.242E-01
 Linear response G [H, r] |phi>, progress :
  Direction:   3
       N       E                     dE             d eps       ncg     rms
RMM:   1    -0.472687454563E+03   -0.47269E+03   -0.26517E+03   247   0.375E+01
RMM:   2    -0.223207547274E+03    0.24948E+03   -0.11044E+02   158   0.689E+00
RMM:   3    -0.223758270589E+03   -0.55072E+00   -0.10235E+02   181   0.813E-01
RMM:   4    -0.229647386851E+03   -0.58891E+01   -0.16107E+02   210   0.269E-01
RMM:   5    -0.228234493030E+03    0.14129E+01   -0.14694E+02   244   0.239E-01
RMM:   6    -0.228249220903E+03   -0.14728E-01   -0.14709E+02   251   0.236E-01
RMM:   7    -0.228547833827E+03   -0.29861E+00   -0.15008E+02   251   0.236E-01
 Linear response to external field (no local field effect), progress :
  Direction:   1
       N       E                     dE             d eps       ncg     rms          rms(c)
RMM:   1    -0.244756872191E+02   -0.24476E+02   -0.14158E+02   220   0.670E+00
RMM:   2    -0.263973891314E+02   -0.19217E+01   -0.11179E-01   163   0.858E-01
RMM:   3    -0.263980622035E+02   -0.67307E-03   -0.28338E-04   170   0.394E-02
RMM:   4    -0.263980641954E+02   -0.19920E-05   -0.12618E-06   173   0.262E-03
RMM:   5    -0.263980642024E+02   -0.69293E-08   -0.29042E-08   172   0.292E-04
 change of polarisation eV/A/(eV/A) component  1 :    52.796    -0.330     0.328
 dielectric tensor                  component  1 :    59.372    -0.365     0.363
 Linear response to external field (no local field effect), progress :
  Direction:   2
       N       E                     dE             d eps       ncg     rms          rms(c)
RMM:   1    -0.244565949984E+02   -0.24457E+02   -0.14140E+02   219   0.666E+00
RMM:   2    -0.263991574888E+02   -0.19426E+01   -0.11789E-01   159   0.865E-01
RMM:   3    -0.263998536808E+02   -0.69619E-03   -0.28833E-04   166   0.391E-02
RMM:   4    -0.263998556984E+02   -0.20176E-05   -0.12801E-06   175   0.259E-03
RMM:   5    -0.263998557057E+02   -0.72347E-08   -0.46046E-08   170   0.321E-04
 change of polarisation eV/A/(eV/A) component  2 :    -0.330    52.800    -0.322
 dielectric tensor                  component  2 :    -0.365    59.376    -0.356
 Linear response to external field (no local field effect), progress :
  Direction:   3
       N       E                     dE             d eps       ncg     rms          rms(c)
RMM:   1    -0.244795333128E+02   -0.24480E+02   -0.14162E+02   220   0.673E+00
RMM:   2    -0.263975839596E+02   -0.19181E+01   -0.11072E-01   162   0.857E-01
RMM:   3    -0.263982520132E+02   -0.66805E-03   -0.28232E-04   170   0.396E-02
RMM:   4    -0.263982540019E+02   -0.19887E-05   -0.12617E-06   171   0.263E-03
RMM:   5    -0.263982540091E+02   -0.72257E-08   -0.34319E-08   167   0.287E-04
 change of polarisation eV/A/(eV/A) component  3 :     0.328    -0.322    52.797
 dielectric tensor                  component  3 :     0.363    -0.356    59.373
 Linear response to external field, progress :
  Direction:   1
       N       E                     dE             d eps       ncg     rms          rms(c)
RMM:   1    -0.244756872191E+02   -0.24476E+02   -0.14158E+02   220   0.670E+00
RMM:   2    -0.263973891314E+02   -0.19217E+01   -0.11179E-01   163   0.858E-01    0.854E+00
RMM:   3    -0.259532032368E+02    0.44419E+00   -0.28789E-01   168   0.123E+00    0.500E+00
RMM:   4    -0.276964094395E+02   -0.17432E+01   -0.35790E-01   158   0.149E+00    0.853E-01
RMM:   5    -0.281913035427E+02   -0.49489E+00   -0.23095E-02   162   0.394E-01    0.128E-01
RMM:   6    -0.282441195068E+02   -0.52816E-01   -0.70004E-04   165   0.797E-02    0.671E-02
RMM:   7    -0.282811208707E+02   -0.37001E-01   -0.56718E-04   149   0.764E-02    0.555E-03
RMM:   8    -0.282850223659E+02   -0.39015E-02   -0.19773E-05   172   0.111E-02    0.274E-03
RMM:   9    -0.282850228841E+02   -0.51814E-06   -0.50901E-07   166   0.200E-03    0.105E-03
RMM:  10    -0.282853539786E+02   -0.33109E-03   -0.29588E-07   163   0.154E-03    0.131E-04
RMM:  11    -0.282853433400E+02    0.10639E-04   -0.15816E-07   165   0.650E-04    0.408E-05
RMM:  12    -0.282853460277E+02   -0.26878E-05   -0.16254E-07   165   0.627E-04    0.146E-05
RMM:  13    -0.282853457207E+02    0.30701E-06   -0.16142E-07   165   0.627E-04    0.317E-06
 change of polarisation eV/A/(eV/A) component  1 :    50.531    -0.324     0.321
 dielectric tensor                  component  1 :    56.868    -0.358     0.355
 Linear response to external field, progress :
  Direction:   2
       N       E                     dE             d eps       ncg     rms          rms(c)
RMM:   1    -0.244565949984E+02   -0.24457E+02   -0.14140E+02   219   0.666E+00
RMM:   2    -0.263991574888E+02   -0.19426E+01   -0.11789E-01   159   0.865E-01    0.854E+00
RMM:   3    -0.259542923020E+02    0.44487E+00   -0.27565E-01   167   0.122E+00    0.500E+00
RMM:   4    -0.276938674583E+02   -0.17396E+01   -0.33450E-01   149   0.148E+00    0.855E-01
RMM:   5    -0.281886673114E+02   -0.49480E+00   -0.22388E-02   162   0.390E-01    0.131E-01
RMM:   6    -0.282435673031E+02   -0.54900E-01   -0.70723E-04   165   0.798E-02    0.691E-02
RMM:   7    -0.282821039986E+02   -0.38537E-01   -0.59706E-04   147   0.787E-02    0.557E-03
RMM:   8    -0.282860712355E+02   -0.39672E-02   -0.21211E-05   172   0.114E-02    0.274E-03
RMM:   9    -0.282860669761E+02    0.42594E-05   -0.86920E-07   165   0.198E-03    0.109E-03
RMM:  10    -0.282863968369E+02   -0.32986E-03   -0.57898E-07   164   0.157E-03    0.131E-04
RMM:  11    -0.282863859318E+02    0.10905E-04   -0.41374E-07   167   0.632E-04    0.415E-05
RMM:  12    -0.282863901121E+02   -0.41802E-05   -0.41975E-07   166   0.619E-04    0.150E-05
RMM:  13    -0.282863887385E+02    0.13736E-05   -0.42073E-07   168   0.619E-04    0.327E-06
 change of polarisation eV/A/(eV/A) component  2 :    -0.324    50.533    -0.315
 dielectric tensor                  component  2 :    -0.358    56.870    -0.348
 Linear response to external field, progress :
  Direction:   3
       N       E                     dE             d eps       ncg     rms          rms(c)
RMM:   1    -0.244795333128E+02   -0.24480E+02   -0.14162E+02   220   0.673E+00
RMM:   2    -0.263975839596E+02   -0.19181E+01   -0.11072E-01   162   0.857E-01    0.854E+00
RMM:   3    -0.259535745874E+02    0.44401E+00   -0.28397E-01   170   0.122E+00    0.500E+00
RMM:   4    -0.276986334249E+02   -0.17451E+01   -0.36067E-01   156   0.149E+00    0.851E-01
RMM:   5    -0.281945585587E+02   -0.49593E+00   -0.23386E-02   161   0.395E-01    0.126E-01
RMM:   6    -0.282462898292E+02   -0.51731E-01   -0.72285E-04   164   0.809E-02    0.644E-02
RMM:   7    -0.282814443170E+02   -0.35154E-01   -0.52484E-04   153   0.732E-02    0.551E-03
RMM:   8    -0.282852435391E+02   -0.37992E-02   -0.18863E-05   171   0.109E-02    0.271E-03
RMM:   9    -0.282852285536E+02    0.14985E-04   -0.41654E-07   165   0.195E-03    0.103E-03
RMM:  10    -0.282855689438E+02   -0.34039E-03   -0.19529E-07   165   0.150E-03    0.119E-04
RMM:  11    -0.282855536478E+02    0.15296E-04   -0.20882E-08   167   0.568E-04    0.413E-05
RMM:  12    -0.282855577493E+02   -0.41015E-05   -0.12436E-08   166   0.557E-04    0.136E-05
RMM:  13    -0.282855569087E+02    0.84060E-06   -0.13048E-08   167   0.557E-04    0.354E-06
 change of polarisation eV/A/(eV/A) component  3 :     0.321    -0.315    50.532
 dielectric tensor                  component  3 :     0.355    -0.348    56.869
 running on   48 total cores
 distrk:  each k-point on   48 cores,    1 groups
 distr:  one band on    1 cores,   48 groups
 using from now: INCAR     
 vasp.5.3.3 18Dez12 (build Jan  9 2014 12:00:49) complex                        
  
 POSCAR found type information on POSCAR  Si
 POSCAR found :  1 types and       8 ions
 scaLAPACK will be used

 ----------------------------------------------------------------------------- 
|                                                                             |
|           W    W    AA    RRRRR   N    N  II  N    N   GGGG   !!!           |
|           W    W   A  A   R    R  NN   N  II  NN   N  G    G  !!!           |
|           W    W  A    A  R    R  N N  N  II  N N  N  G       !!!           |
|           W WW W  AAAAAA  RRRRR   N  N N  II  N  N N  G  GGG   !            |
|           WW  WW  A    A  R   R   N   NN  II  N   NN  G    G                |
|           W    W  A    A  R    R  N    N  II  N    N   GGGG   !!!           |
|                                                                             |
|      For optimal performance we recommend that you set                      |
|        NPAR = 4 - approx SQRT( number of cores)                             |
|      (number of cores/NPAR must be integer)                                 |
|      This setting will greatly improve the performance of VASP for DFT.     |
|      The default NPAR=number of cores might be grossly inefficient          |
|      on modern multi-core architectures or massively parallel machines.     |
|      Do your own testing.                                                   |
|      Unfortunately you need to use the default for hybrid, GW and RPA       |
|      calculations.                                                          |
|                                                                             |
 ----------------------------------------------------------------------------- 

 LDA part: xc-table for Ceperly-Alder, standard interpolation
 POSCAR found type information on POSCAR  Si
 POSCAR found :  1 types and       8 ions
 POSCAR, INCAR and KPOINTS ok, starting setup
 FFT: planning ...
 WAVECAR not read
 entering main loop
       N       E                     dE             d eps       ncg     rms          rms(c)
DAV:   1    -0.101440999242E+02   -0.10144E+02   -0.79560E+03    96   0.246E+02
DAV:   2    -0.344507441565E+02   -0.24307E+02   -0.24304E+02   144   0.326E+01
DAV:   3    -0.346177186022E+02   -0.16697E+00   -0.16697E+00    96   0.330E+00
DAV:   4    -0.346180726696E+02   -0.35407E-03   -0.35407E-03   192   0.178E-01
DAV:   5    -0.346180726726E+02   -0.30346E-08   -0.30350E-08    96   0.555E-04    0.793E+00
RMM:   6    -0.336163655504E+02    0.10017E+01   -0.31975E-01    96   0.120E+00    0.474E+00
RMM:   7    -0.331917069357E+02    0.42466E+00   -0.73872E-01    96   0.195E+00    0.463E-01
RMM:   8    -0.332236815974E+02   -0.31975E-01   -0.21595E-02    96   0.416E-01    0.750E-02
RMM:   9    -0.332248175868E+02   -0.11360E-02   -0.12648E-03   106   0.984E-02    0.418E-02
RMM:  10    -0.332250029354E+02   -0.18535E-03   -0.22892E-04   104   0.429E-02    0.405E-03
RMM:  11    -0.332249986706E+02    0.42648E-05   -0.25937E-06   117   0.425E-03    0.159E-03
RMM:  12    -0.332249993497E+02   -0.67911E-06   -0.57809E-07   125   0.215E-03    0.595E-04
RMM:  13    -0.332249992461E+02    0.10363E-06   -0.26295E-08   116   0.463E-04    0.178E-04
RMM:  14    -0.332249991169E+02    0.12919E-06   -0.21898E-09    98   0.124E-04    0.393E-05
RMM:  15    -0.332249991139E+02    0.29515E-08   -0.22823E-10    70   0.525E-05
   1 F= -.33224999E+02 E0= -.33224999E+02  d E =-.864383E-20
 Linear response reoptimize wavefunctions to high precision
DAV:   1    -0.332249991106E+02    0.33290E-08   -0.20151E-10   192   0.367E-05
DAV:   2    -0.332249991106E+02    0.34106E-12   -0.59242E-12    96   0.213E-06
 Linear response G [H, r] |phi>, progress :
  Direction:   1
       N       E                     dE             d eps       ncg     rms
RMM:   1    -0.462773621394E+03   -0.46277E+03   -0.25525E+03   243   0.374E+01
RMM:   2    -0.252024499386E+03    0.21075E+03    0.14542E+02   163   0.672E+00
RMM:   3    -0.264036958401E+03   -0.12012E+02    0.38956E+01   196   0.739E-01
RMM:   4    -0.267717768887E+03   -0.36808E+01    0.23178E+00   209   0.757E-02
RMM:   5    -0.267902730151E+03   -0.18496E+00    0.47005E-01   227   0.127E-02
RMM:   6    -0.267945267379E+03   -0.42537E-01    0.44701E-02   235   0.652E-03
RMM:   7    -0.267949402007E+03   -0.41346E-02    0.33554E-03   246   0.602E-03
RMM:   8    -0.267949752029E+03   -0.35002E-03   -0.14476E-04   240   0.598E-03
 Linear response G [H, r] |phi>, progress :
  Direction:   2
[...]
|                                                                             |
|      For optimal performance we recommend that you set                      |
|        NPAR = 4 - approx SQRT( number of cores)                             |
|      (number of cores/NPAR must be integer)                                 |
|      This setting will greatly improve the performance of VASP for DFT.     |
|      The default NPAR=number of cores might be grossly inefficient          |
|      on modern multi-core architectures or massively parallel machines.     |
|      Do your own testing.                                                   |
|      Unfortunately you need to use the default for hybrid, GW and RPA       |
|      calculations.                                                          |
|                                                                             |
 ----------------------------------------------------------------------------- 

 LDA part: xc-table for Ceperly-Alder, standard interpolation
 POSCAR found type information on POSCAR  Si
 POSCAR found :  1 types and       8 ions
 POSCAR, INCAR and KPOINTS ok, starting setup
 FFT: planning ...
 WAVECAR not read
 entering main loop
       N       E                     dE             d eps       ncg     rms          rms(c)
DAV:   1    -0.101482579567E+02   -0.10148E+02   -0.79563E+03    96   0.246E+02
DAV:   2    -0.344505443818E+02   -0.24302E+02   -0.24301E+02   144   0.326E+01
DAV:   3    -0.346177382835E+02   -0.16719E+00   -0.16719E+00    96   0.328E+00
DAV:   4    -0.346180927652E+02   -0.35448E-03   -0.35448E-03   192   0.176E-01
DAV:   5    -0.346180927683E+02   -0.30612E-08   -0.30620E-08    96   0.551E-04    0.793E+00
RMM:   6    -0.336164101057E+02    0.10017E+01   -0.31980E-01    96   0.120E+00    0.474E+00
RMM:   7    -0.331917687258E+02    0.42464E+00   -0.73881E-01    96   0.195E+00    0.463E-01
RMM:   8    -0.332237479643E+02   -0.31979E-01   -0.21625E-02    96   0.416E-01    0.750E-02
RMM:   9    -0.332248755439E+02   -0.11276E-02   -0.12596E-03   109   0.981E-02    0.417E-02
RMM:  10    -0.332250613888E+02   -0.18584E-03   -0.24981E-04   104   0.449E-02    0.499E-03
RMM:  11    -0.332250571219E+02    0.42668E-05   -0.35786E-06   117   0.530E-03    0.155E-03
RMM:  12    -0.332250576538E+02   -0.53187E-06   -0.48760E-07   126   0.203E-03    0.573E-04
RMM:  13    -0.332250576054E+02    0.48362E-07   -0.21440E-08   117   0.420E-04    0.188E-04
RMM:  14    -0.332250574604E+02    0.14504E-06   -0.26083E-09    97   0.138E-04    0.440E-05
RMM:  15    -0.332250574694E+02   -0.90248E-08   -0.30649E-10    68   0.586E-05
   1 F= -.33225057E+02 E0= -.33225057E+02  d E =-.626394E-19
 Linear response reoptimize wavefunctions to high precision
DAV:   1    -0.332250574617E+02    0.77454E-08   -0.16563E-10   144   0.332E-05
DAV:   2    -0.332250574617E+02    0.45475E-12   -0.53291E-14    96   0.209E-06
 Linear response G [H, r] |phi>, progress :
  Direction:   1
       N       E                     dE             d eps       ncg     rms
RMM:   1    -0.448755515321E+03   -0.44876E+03   -0.24124E+03   245   0.375E+01
RMM:   2    -0.399981880866E+03    0.48774E+02    0.83496E+02   159   0.694E+00
RMM:   3    -0.409798235880E+03   -0.98164E+01    0.75065E+02   199   0.926E-01
RMM:   4    -0.410049948435E+03   -0.25171E+00    0.74830E+02   228   0.443E-01
RMM:   5    -0.409543478274E+03    0.50647E+00    0.75336E+02   253   0.418E-01
RMM:   6    -0.409594404619E+03   -0.50926E-01    0.75285E+02   262   0.416E-01
 Linear response G [H, r] |phi>, progress :
  Direction:   2
       N       E                     dE             d eps       ncg     rms
RMM:   1    -0.466327890760E+03   -0.46633E+03   -0.25881E+03   247   0.374E+01
RMM:   2    -0.403738949512E+03    0.62589E+02    0.12055E+03   160   0.694E+00
RMM:   3    -0.424386467511E+03   -0.20648E+02    0.10130E+03   197   0.908E-01
RMM:   4    -0.429416047511E+03   -0.50296E+01    0.96285E+02   223   0.428E-01
RMM:   5    -0.427532309403E+03    0.18837E+01    0.98169E+02   251   0.406E-01
RMM:   6    -0.427083719203E+03    0.44859E+00    0.98617E+02   260   0.404E-01
 Linear response G [H, r] |phi>, progress :
  Direction:   3
       N       E                     dE             d eps       ncg     rms
RMM:   1    -0.430091182619E+03   -0.43009E+03   -0.22257E+03   241   0.373E+01
RMM:   2    -0.110394438536E+03    0.31970E+03   -0.98912E+02   164   0.654E+00
RMM:   3    -0.150587548329E+03   -0.40193E+02   -0.13780E+03   198   0.895E-01
RMM:   4    -0.153906822520E+03   -0.33193E+01   -0.14110E+03   235   0.418E-01
RMM:   5    -0.146526152603E+03    0.73807E+01   -0.13372E+03   255   0.392E-01
RMM:   6    -0.148033044991E+03   -0.15069E+01   -0.13522E+03   258   0.390E-01
 Linear response to external field (no local field effect), progress :
  Direction:   1
       N       E                     dE             d eps       ncg     rms          rms(c)
RMM:   1    -0.244572681133E+02   -0.24457E+02   -0.14141E+02   222   0.671E+00
RMM:   2    -0.263951917248E+02   -0.19379E+01   -0.11642E-01   160   0.874E-01
RMM:   3    -0.263958825585E+02   -0.69083E-03   -0.28733E-04   169   0.397E-02
RMM:   4    -0.263958845748E+02   -0.20163E-05   -0.12505E-06   172   0.263E-03
RMM:   5    -0.263958845818E+02   -0.70748E-08   -0.11180E-08   168   0.215E-04
 change of polarisation eV/A/(eV/A) component  1 :    52.792     0.172    -0.149
 dielectric tensor                  component  1 :    59.367     0.190    -0.165
 Linear response to external field (no local field effect), progress :
  Direction:   2
       N       E                     dE             d eps       ncg     rms          rms(c)
RMM:   1    -0.244830502549E+02   -0.24483E+02   -0.14166E+02   219   0.665E+00
RMM:   2    -0.263949801176E+02   -0.19119E+01   -0.10901E-01   159   0.845E-01
RMM:   3    -0.263956405036E+02   -0.66039E-03   -0.28032E-04   170   0.390E-02
RMM:   4    -0.263956424772E+02   -0.19736E-05   -0.12377E-06   170   0.259E-03
RMM:   5    -0.263956424842E+02   -0.70823E-08   -0.14286E-08   168   0.209E-04
 change of polarisation eV/A/(eV/A) component  2 :     0.172    52.791     0.168
 dielectric tensor                  component  2 :     0.190    59.367     0.185
 Linear response to external field (no local field effect), progress :
  Direction:   3
       N       E                     dE             d eps       ncg     rms          rms(c)
RMM:   1    -0.244580458943E+02   -0.24458E+02   -0.14143E+02   225   0.666E+00
RMM:   2    -0.263874383863E+02   -0.19294E+01   -0.11462E-01   162   0.836E-01
RMM:   3    -0.263881169355E+02   -0.67855E-03   -0.28413E-04   171   0.379E-02
RMM:   4    -0.263881189203E+02   -0.19848E-05   -0.12222E-06   172   0.246E-03
RMM:   5    -0.263881189273E+02   -0.69649E-08   -0.12203E-08   168   0.211E-04
 change of polarisation eV/A/(eV/A) component  3 :    -0.149     0.168    52.776
 dielectric tensor                  component  3 :    -0.165     0.185    59.350
 Linear response to external field, progress :
  Direction:   1
       N       E                     dE             d eps       ncg     rms          rms(c)
RMM:   1    -0.244572681133E+02   -0.24457E+02   -0.14141E+02   222   0.671E+00
RMM:   2    -0.263951917248E+02   -0.19379E+01   -0.11642E-01   160   0.874E-01    0.854E+00
RMM:   3    -0.259506140394E+02    0.44458E+00   -0.27710E-01   171   0.122E+00    0.500E+00
RMM:   4    -0.276907064563E+02   -0.17401E+01   -0.34475E-01   150   0.148E+00    0.855E-01
RMM:   5    -0.281838458656E+02   -0.49314E+00   -0.22391E-02   161   0.390E-01    0.132E-01
RMM:   6    -0.282395246939E+02   -0.55679E-01   -0.71149E-04   167   0.799E-02    0.696E-02
RMM:   7    -0.282786175739E+02   -0.39093E-01   -0.61926E-04   148   0.797E-02    0.543E-03
RMM:   8    -0.282823034771E+02   -0.36859E-02   -0.20775E-05   173   0.111E-02    0.276E-03
RMM:   9    -0.282823415013E+02   -0.38024E-04   -0.74878E-07   167   0.195E-03    0.104E-03
RMM:  10    -0.282826568373E+02   -0.31534E-03   -0.44529E-07   166   0.140E-03    0.144E-04
RMM:  11    -0.282826490014E+02    0.78359E-05   -0.28433E-07   167   0.330E-04    0.393E-05
RMM:  12    -0.282826500567E+02   -0.10553E-05   -0.30387E-07   169   0.296E-04    0.134E-05
RMM:  13    -0.282826502947E+02   -0.23797E-06   -0.30467E-07   167   0.295E-04    0.307E-06
 change of polarisation eV/A/(eV/A) component  1 :    50.526     0.169    -0.146
 dielectric tensor                  component  1 :    56.862     0.187    -0.162
 Linear response to external field, progress :
  Direction:   2
       N       E                     dE             d eps       ncg     rms          rms(c)
RMM:   1    -0.244830502549E+02   -0.24483E+02   -0.14166E+02   219   0.665E+00
RMM:   2    -0.263949801176E+02   -0.19119E+01   -0.10901E-01   159   0.845E-01    0.854E+00
RMM:   3    -0.259504545171E+02    0.44453E+00   -0.28711E-01   167   0.122E+00    0.500E+00
RMM:   4    -0.276918076483E+02   -0.17414E+01   -0.35380E-01   152   0.149E+00    0.854E-01
RMM:   5    -0.281855522766E+02   -0.49374E+00   -0.22745E-02   160   0.392E-01    0.130E-01
RMM:   6    -0.282397501158E+02   -0.54198E-01   -0.69633E-04   166   0.793E-02    0.688E-02
RMM:   7    -0.282783179019E+02   -0.38568E-01   -0.60855E-04   143   0.791E-02    0.540E-03
RMM:   8    -0.282818737331E+02   -0.35558E-02   -0.19658E-05   173   0.109E-02    0.278E-03
RMM:   9    -0.282819227014E+02   -0.48968E-04   -0.32543E-07   168   0.199E-03    0.999E-04
RMM:  10    -0.282822305918E+02   -0.30789E-03   -0.44661E-08   164   0.135E-03    0.137E-04
RMM:  11    -0.282822235123E+02    0.70795E-05    0.12379E-07   166   0.313E-04    0.388E-05
RMM:  12    -0.282822247182E+02   -0.12059E-05    0.12929E-07   167   0.281E-04    0.131E-05
RMM:  13    -0.282822249699E+02   -0.25172E-06    0.13006E-07   169   0.280E-04    0.326E-06
 change of polarisation eV/A/(eV/A) component  2 :     0.169    50.526     0.165
 dielectric tensor                  component  2 :     0.187    56.862     0.183
 Linear response to external field, progress :
  Direction:   3
       N       E                     dE             d eps       ncg     rms          rms(c)
RMM:   1    -0.244580458943E+02   -0.24458E+02   -0.14143E+02   225   0.666E+00
RMM:   2    -0.263874383863E+02   -0.19294E+01   -0.11462E-01   162   0.836E-01    0.853E+00
RMM:   3    -0.259448379614E+02    0.44260E+00   -0.28186E-01   168   0.122E+00    0.500E+00
RMM:   4    -0.276898788268E+02   -0.17450E+01   -0.34254E-01   154   0.149E+00    0.849E-01
RMM:   5    -0.281887048436E+02   -0.49883E+00   -0.23535E-02   159   0.397E-01    0.124E-01
RMM:   6    -0.282399718615E+02   -0.51267E-01   -0.76779E-04   167   0.831E-02    0.600E-02
RMM:   7    -0.282730331588E+02   -0.33061E-01   -0.55753E-04   148   0.694E-02    0.509E-03
RMM:   8    -0.282759230878E+02   -0.28899E-02   -0.10936E-05   173   0.792E-03    0.271E-03
RMM:   9    -0.282760742439E+02   -0.15116E-03   -0.58407E-07   168   0.225E-03    0.839E-04
RMM:  10    -0.282762974389E+02   -0.22320E-03   -0.12894E-07   165   0.108E-03    0.970E-05
RMM:  11    -0.282762874350E+02    0.10004E-04   -0.31284E-08   170   0.317E-04    0.380E-05
RMM:  12    -0.282762911246E+02   -0.36896E-05   -0.30428E-08   168   0.304E-04    0.131E-05
RMM:  13    -0.282762887707E+02    0.23538E-05   -0.30292E-08   167   0.304E-04    0.269E-06
 change of polarisation eV/A/(eV/A) component  3 :    -0.146     0.165    50.515
 dielectric tensor                  component  3 :    -0.162     0.183    56.850
# atoms: 8, volume: 163.66732

Mode #: 9, frequency:  0.0488960 cm-1, norm:  0.1865104
File OUTCAR.0009.-1.out not found, running VASP...
Found eps in OUTCAR.0009.-1.out:
[[56.855612, -0.037575, 0.159388], [-0.03758, 56.866494, -0.112376], [0.15939, -0.112378, 56.8672]]
File OUTCAR.0009.+1.out not found, running VASP...
Found eps in OUTCAR.0009.+1.out:
[[56.857132, 0.039748, -0.14923], [0.039747, 56.86558, 0.109094], [-0.14923, 0.109094, 56.866125]]
for mode 9 (   0.04890): alpha: -0.0189879; beta2: 6650.5642839; activity: 46553.9662114 
Mode #: 10, frequency: 322.5672130 cm-1, norm:  0.1840172
File OUTCAR.0010.-1.out not found, running VASP...
Found eps in OUTCAR.0010.-1.out:
[[56.853907, -0.069503, 0.051015], [-0.069503, 56.849516, -0.25006], [0.051018, -0.25006, 56.848726]]
File OUTCAR.0010.+1.out not found, running VASP...
Found eps in OUTCAR.0010.+1.out:
[[56.86215, 0.067145, -0.041699], [0.067147, 56.843956, 0.235777], [-0.041699, 0.235775, 56.847207]]
for mode 10 ( 322.56721): alpha:  0.0464956; beta2: 11345.5705272; activity: 79419.0909734 
Mode #: 11, frequency: 322.5984400 cm-1, norm:  0.1978471
File OUTCAR.0011.-1.out not found, running VASP...
Found eps in OUTCAR.0011.-1.out:
[[56.868016, 0.343593, -0.331348], [0.343591, 56.875031, 0.328192], [-0.331356, 0.328188, 56.864424]]
File OUTCAR.0011.+1.out not found, running VASP...
Found eps in OUTCAR.0011.+1.out:
[[56.868305, -0.357739, 0.354877], [-0.357743, 56.870172, -0.348244], [0.354866, -0.348246, 56.868905]]
for mode 11 ( 322.59844): alpha: -0.0038223; beta2: 70733.1680712; activity: 495132.1771559 
Mode #: 12, frequency: 322.6583690 cm-1, norm:  0.1979777
File OUTCAR.0012.-1.out not found, running VASP...
Found eps in OUTCAR.0012.-1.out:
[[56.865354, 0.059224, -0.048576], [0.059224, 56.86875, 0.083189], [-0.048576, 0.083188, 56.866937]]
File OUTCAR.0012.+1.out not found, running VASP...
Found eps in OUTCAR.0012.+1.out:
[[56.865146, -0.077932, 0.010782], [-0.07793, 56.866683, -0.069853], [0.010781, -0.069855, 56.868844]]
for mode 12 ( 322.65837): alpha: -0.0158148; beta2: 2281.8818055; activity: 15973.1838934 
Mode #: 13, frequency: 322.7041380 cm-1, norm:  0.1869370
File OUTCAR.0013.-1.out not found, running VASP...
Found eps in OUTCAR.0013.-1.out:
[[56.877242, -0.020101, 0.103758], [-0.020101, 56.870135, -0.135341], [0.103758, -0.135341, 56.861751]]
File OUTCAR.0013.+1.out not found, running VASP...
Found eps in OUTCAR.0013.+1.out:
[[56.877526, 0.004328, -0.081159], [0.004329, 56.86984, 0.146942], [-0.081159, 0.14694, 56.861228]]
for mode 13 ( 322.70414): alpha: -0.0216689; beta2: 5089.3981892; activity: 35625.8084535 
Mode #: 14, frequency: 322.7575530 cm-1, norm:  0.1744880
File OUTCAR.0014.-1.out not found, running VASP...
Found eps in OUTCAR.0014.-1.out:
[[56.874593, 0.279537, -0.276686], [0.279543, 56.868099, 0.434333], [-0.276681, 0.434338, 56.86669]]
File OUTCAR.0014.+1.out not found, running VASP...
Found eps in OUTCAR.0014.+1.out:
[[56.877214, -0.290766, 0.281111], [-0.290766, 56.863007, -0.441315], [0.281111, -0.441317, 56.868222]]
for mode 14 ( 322.75755): alpha: -0.0355658; beta2: 54350.5232739; activity: 380453.7198390 
Mode #: 15, frequency: 322.9479960 cm-1, norm:  0.1866780
File OUTCAR.0015.-1.out not found, running VASP...
Found eps in OUTCAR.0015.-1.out:
[[56.846975, -0.021895, -0.085345], [-0.021893, 56.842546, 0.125521], [-0.085343, 0.125521, 56.86851]]
File OUTCAR.0015.+1.out not found, running VASP...
Found eps in OUTCAR.0015.+1.out:
[[56.848111, 0.028203, 0.088362], [0.028202, 56.843952, -0.129081], [0.08836, -0.129082, 56.865179]]
for mode 15 ( 322.94800): alpha: -0.0319721; beta2: 4323.2953091; activity: 30263.1131636 
Mode #: 16, frequency: 420.0048990 cm-1, norm:  0.1839396
File OUTCAR.0016.-1.out not found, running VASP...
Found eps in OUTCAR.0016.-1.out:
[[56.866359, 0.065394, -0.332414], [0.065397, 56.870036, 0.295717], [-0.332417, 0.295715, 56.870694]]
File OUTCAR.0016.+1.out not found, running VASP...
Found eps in OUTCAR.0016.+1.out:
[[56.865518, -0.069751, 0.333115], [-0.069751, 56.867511, -0.293304], [0.333116, -0.293304, 56.875301]]
for mode 16 ( 420.00490): alpha:  0.0495505; beta2: 34786.3945116; activity: 243504.8720677 
Mode #: 17, frequency: 420.0793070 cm-1, norm:  0.1814643
File OUTCAR.0017.-1.out not found, running VASP...
Found eps in OUTCAR.0017.-1.out:
[[56.847521, -0.011092, 0.00136], [-0.011093, 56.85017, 0.133939], [0.001363, 0.133935, 56.846538]]
File OUTCAR.0017.+1.out not found, running VASP...
Found eps in OUTCAR.0017.+1.out:
[[56.849298, 0.016358, 0.002666], [0.016357, 56.848793, -0.137793], [0.002668, -0.137795, 56.845183]]
for mode 17 ( 420.07931): alpha: -0.0376180; beta2: 3125.1302171; activity: 21875.9751998 
Mode #: 18, frequency: 420.1405040 cm-1, norm:  0.1985731
File OUTCAR.0018.-1.out not found, running VASP...
Found eps in OUTCAR.0018.-1.out:
[[56.883457, -0.100377, 0.05607], [-0.100377, 56.871991, -0.030812], [0.056069, -0.030813, 56.879943]]
File OUTCAR.0018.+1.out not found, running VASP...
Found eps in OUTCAR.0018.+1.out:
[[56.882574, 0.114542, -0.075987], [0.114543, 56.872317, 0.017945], [-0.075987, 0.017945, 56.878085]]
for mode 18 ( 420.14050): alpha: -0.1040971; beta2: 3311.3168883; activity: 23179.7058470 
Mode #: 19, frequency: 420.2295190 cm-1, norm:  0.1858391
File OUTCAR.0019.-1.out not found, running VASP...
Found eps in OUTCAR.0019.-1.out:
[[56.853048, -0.06861, -0.004497], [-0.06861, 56.861676, -0.037636], [-0.004499, -0.037634, 56.863239]]
File OUTCAR.0019.+1.out not found, running VASP...
Found eps in OUTCAR.0019.+1.out:
[[56.850305, 0.076905, 0.013625], [0.076904, 56.86527, 0.032868], [0.013624, 0.032869, 56.862213]]
for mode 19 ( 420.22952): alpha: -0.0070595; beta2: 1163.6779402; activity: 8145.7478242 
Mode #: 20, frequency: 420.4037870 cm-1, norm:  0.1980363
File OUTCAR.0020.-1.out not found, running VASP...
Found eps in OUTCAR.0020.-1.out:
[[56.868521, 0.05013, -0.074705], [0.050133, 56.843672, 0.119139], [-0.074704, 0.119138, 56.859401]]
File OUTCAR.0020.+1.out not found, running VASP...
Found eps in OUTCAR.0020.+1.out:
[[56.869667, -0.062817, 0.049856], [-0.062813, 56.843569, -0.115675], [0.049854, -0.115674, 56.857549]]
for mode 20 ( 420.40379): alpha: -0.0347772; beta2: 4161.8410062; activity: 29132.9414689 
Mode #: 21, frequency: 420.6192840 cm-1, norm:  0.1866744
File OUTCAR.0021.-1.out not found, running VASP...
Found eps in OUTCAR.0021.-1.out:
[[56.873124, -0.207167, 0.330316], [-0.207166, 56.876772, -0.357148], [0.330316, -0.357149, 56.874241]]
File OUTCAR.0021.+1.out not found, running VASP...
Found eps in OUTCAR.0021.+1.out:
[[56.871404, 0.190343, -0.316261], [0.190344, 56.877599, 0.352543], [-0.31626, 0.352541, 56.872359]]
for mode 21 ( 420.61928): alpha: -0.1124472; beta2: 47868.9494576; activity: 335083.2151996 
Mode #: 22, frequency: 582.8593920 cm-1, norm:  0.1841579
File OUTCAR.0022.-1.out not found, running VASP...
Found eps in OUTCAR.0022.-1.out:
[[56.874271, 0.354696, -0.083133], [0.354696, 56.881759, 0.043292], [-0.083131, 0.043293, 56.889995]]
File OUTCAR.0022.+1.out not found, running VASP...
Found eps in OUTCAR.0022.+1.out:
[[56.874353, -0.349374, 0.091028], [-0.349373, 56.882371, -0.04986], [0.091026, -0.04986, 56.890795]]
for mode 22 ( 582.85939): alpha:  0.0597230; beta2: 23071.4944089; activity: 161500.6213700 
Mode #: 23, frequency: 582.8773450 cm-1, norm:  0.1978401
File OUTCAR.0023.-1.out not found, running VASP...
Found eps in OUTCAR.0023.-1.out:
[[56.861605, -0.14487, 0.153385], [-0.144868, 56.859739, -0.10992], [0.153387, -0.10992, 56.86887]]
File OUTCAR.0023.+1.out not found, running VASP...
Found eps in OUTCAR.0023.+1.out:
[[56.860064, 0.149933, -0.165772], [0.149935, 56.859221, 0.100086], [-0.165771, 0.100087, 56.870944]]
for mode 23 ( 582.87734): alpha:  0.0006442; beta2: 11596.2881387; activity: 81174.0169896 
Mode #: 24, frequency: 582.9452980 cm-1, norm:  0.1986628
File OUTCAR.0024.-1.out not found, running VASP...
Found eps in OUTCAR.0024.-1.out:
[[56.863319, -0.189264, 0.173806], [-0.18927, 56.853733, -0.188039], [0.173802, -0.188047, 56.857023]]
File OUTCAR.0024.+1.out not found, running VASP...
Found eps in OUTCAR.0024.+1.out:
[[56.862431, 0.186666, -0.161936], [0.186658, 56.862472, 0.18276], [-0.161946, 0.182752, 56.850343]]
for mode 24 ( 582.94530): alpha:  0.0504980; beta2: 19662.5516345; activity: 137637.9761936 

real	13m16.785s
user	338m10.723s
sys	223m49.849s
