<?xml version="1.0" encoding="ISO-8859-1"?>
<modeling>
 <generator>
  <i name="program" type="string">vasp </i>
  <i name="version" type="string">5.3.3  </i>
  <i name="subversion" type="string">18Dez12 (build Jan  9 2014 12:00:49) complex                          parallel </i>
  <i name="platform" type="string">LinuxIFC </i>
  <i name="date" type="string">2014 01 29 </i>
  <i name="time" type="string">10:14:10 </i>
 </generator>
 <incar>
  <i type="string" name="SYSTEM"> NAPTHA04</i>
  <i type="int" name="ISTART">     0</i>
  <i type="string" name="PREC">normal</i>
  <i type="string" name="ALGO"> Fast</i>
  <i type="int" name="NSIM">     4</i>
  <i type="logical" name="ADDGRID"> T  </i>
  <i type="int" name="ISPIN">     1</i>
  <i type="int" name="ICHARG">     2</i>
  <i name="EDIFF">      0.00000001</i>
  <i name="ENCUT">    200.00000000</i>
  <i type="int" name="NGX">    26</i>
  <i type="int" name="NGY">    26</i>
  <i type="int" name="NGZ">    26</i>
  <i type="logical" name="LREAL"> F  </i>
  <i type="logical" name="LPLANE"> T  </i>
  <i type="int" name="ISMEAR">     0</i>
  <i name="SIGMA">      0.02000000</i>
  <i type="int" name="NWRITE">     3</i>
  <i type="logical" name="LWAVE"> F  </i>
  <i type="logical" name="LCHARG"> F  </i>
  <i type="logical" name="LVTOT"> F  </i>
  <i type="logical" name="LELF"> F  </i>
  <i type="logical" name="LEPSILON"> T  </i>
 </incar>
 <kpoints>
  <generation param="Gamma">
   <v type="int" name="divisions">       1        1        1 </v>
   <v name="usershift">      0.00000000       0.00000000       0.00000000 </v>
   <v name="genvec1">      1.00000000       0.00000000       0.00000000 </v>
   <v name="genvec2">      0.00000000       1.00000000       0.00000000 </v>
   <v name="genvec3">      0.00000000       0.00000000       1.00000000 </v>
   <v name="shift">      0.00000000       0.00000000       0.00000000 </v>
  </generation>
  <varray name="kpointlist" >
   <v>       0.00000000       0.00000000       0.00000000 </v>
  </varray>
  <varray name="weights" >
   <v>       1.00000000 </v>
  </varray>
 </kpoints>
 <parameters>
  <separator name="general" >
   <i type="string" name="SYSTEM">NAPTHA04</i>
   <i type="logical" name="LCOMPAT"> F  </i>
  </separator>
  <separator name="electronic" >
   <i type="string" name="PREC">normal</i>
   <i name="ENMAX">    200.00000000</i>
   <i name="ENAUG">    322.06900000</i>
   <i name="EDIFF">      0.00000001</i>
   <i type="int" name="IALGO">    68</i>
   <i type="int" name="IWAVPR">    10</i>
   <i type="int" name="NBANDS">    48</i>
   <i name="NELECT">     32.00000000</i>
   <i type="int" name="TURBO">     0</i>
   <i type="int" name="IRESTART">     0</i>
   <i type="int" name="NREBOOT">     0</i>
   <i type="int" name="NMIN">     0</i>
   <i name="EREF">      0.00000000</i>
   <separator name="electronic smearing" >
    <i type="int" name="ISMEAR">     0</i>
    <i name="SIGMA">      0.02000000</i>
    <i name="KSPACING">      0.50000000</i>
    <i type="logical" name="KGAMMA"> T  </i>
   </separator>
   <separator name="electronic projectors" >
    <i type="logical" name="LREAL"> F  </i>
    <v name="ROPT">      0.00000000</v>
    <i type="int" name="LMAXPAW">  -100</i>
    <i type="int" name="LMAXMIX">     2</i>
    <i type="logical" name="NLSPLINE"> F  </i>
   </separator>
   <separator name="electronic startup" >
    <i type="int" name="ISTART">     0</i>
    <i type="int" name="ICHARG">     2</i>
    <i type="int" name="INIWAV">     1</i>
   </separator>
   <separator name="electronic spin" >
    <i type="int" name="ISPIN">     1</i>
    <i type="logical" name="LNONCOLLINEAR"> F  </i>
    <v name="MAGMOM">      1.00000000      1.00000000      1.00000000      1.00000000      1.00000000      1.00000000      1.00000000      1.00000000</v>
    <i name="NUPDOWN">     -1.00000000</i>
    <i type="logical" name="LSORBIT"> F  </i>
    <v name="SAXIS">      0.00000000      0.00000000      1.00000000</v>
    <i type="logical" name="LSPIRAL"> F  </i>
    <v name="QSPIRAL">      0.00000000      0.00000000      0.00000000</v>
    <i type="logical" name="LZEROZ"> F  </i>
   </separator>
   <separator name="electronic exchange-correlation" >
    <i type="logical" name="LASPH"> F  </i>
    <i type="logical" name="LMETAGGA"> F  </i>
   </separator>
   <separator name="electronic convergence" >
    <i type="int" name="NELM">    60</i>
    <i type="int" name="NELMDL">    -5</i>
    <i type="int" name="NELMIN">     2</i>
    <i name="ENINI">    200.00000000</i>
    <separator name="electronic convergence detail" >
     <i type="logical" name="LDIAG"> T  </i>
     <i type="logical" name="LSUBROT"> T  </i>
     <i name="WEIMIN">      0.00000000</i>
     <i name="EBREAK">      0.00000000</i>
     <i name="DEPER">      0.30000000</i>
     <i type="int" name="NRMM">     4</i>
     <i name="TIME">      0.40000000</i>
    </separator>
   </separator>
   <separator name="electronic mixer" >
    <i name="AMIX">      0.40000000</i>
    <i name="BMIX">      1.00000000</i>
    <i name="AMIN">      0.10000000</i>
    <i name="AMIX_MAG">      1.60000000</i>
    <i name="BMIX_MAG">      1.00000000</i>
    <separator name="electronic mixer details" >
     <i type="int" name="IMIX">     4</i>
     <i type="int" name="MAXMIX">   -45</i>
     <i name="WC">    100.00000000</i>
     <i type="int" name="INIMIX">     1</i>
     <i type="int" name="MIXPRE">     1</i>
     <i type="int" name="MREMOVE">     5</i>
    </separator>
   </separator>
   <separator name="electronic dipolcorrection" >
    <i type="logical" name="LDIPOL"> F  </i>
    <i type="logical" name="LMONO"> F  </i>
    <i type="int" name="IDIPOL">     0</i>
    <i name="EPSILON">      1.00000000</i>
    <v name="DIPOL">   -100.00000000   -100.00000000   -100.00000000</v>
    <i name="EFIELD">      0.00000000</i>
   </separator>
  </separator>
  <separator name="grids" >
   <i type="int" name="NGX">    28</i>
   <i type="int" name="NGY">    28</i>
   <i type="int" name="NGZ">    28</i>
   <i type="int" name="NGXF">    56</i>
   <i type="int" name="NGYF">    56</i>
   <i type="int" name="NGZF">    56</i>
   <i type="logical" name="ADDGRID"> T  </i>
  </separator>
  <separator name="ionic" >
   <i type="int" name="NSW">     0</i>
   <i type="int" name="IBRION">    -1</i>
   <i type="int" name="ISIF">     2</i>
   <i name="PSTRESS">      0.00000000</i>
   <i name="EDIFFG">      0.00000010</i>
   <i type="int" name="NFREE">     0</i>
   <i name="POTIM">      0.50000000</i>
   <i name="SMASS">     -3.00000000</i>
   <i name="SCALEE">      1.00000000</i>
  </separator>
  <separator name="ionic md" >
   <i name="TEBEG">      0.00010000</i>
   <i name="TEEND">      0.00010000</i>
   <i type="int" name="NBLOCK">     1</i>
   <i type="int" name="KBLOCK">     1</i>
   <i type="int" name="NPACO">   256</i>
   <i name="APACO">     16.00000000</i>
  </separator>
  <separator name="symmetry" >
   <i type="int" name="ISYM">     2</i>
   <i name="SYMPREC">      0.00001000</i>
  </separator>
  <separator name="dos" >
   <i type="logical" name="LORBIT"> F  </i>
   <v name="RWIGS">     -1.00000000</v>
   <i type="int" name="NEDOS">   301</i>
   <i name="EMIN">     10.00000000</i>
   <i name="EMAX">    -10.00000000</i>
   <i name="EFERMI">      0.00000000</i>
  </separator>
  <separator name="writing" >
   <i type="int" name="NWRITE">     3</i>
   <i type="logical" name="LWAVE"> F  </i>
   <i type="logical" name="LCHARG"> F  </i>
   <i type="logical" name="LPARD"> F  </i>
   <i type="logical" name="LVTOT"> F  </i>
   <i type="logical" name="LVHAR"> F  </i>
   <i type="logical" name="LELF"> F  </i>
   <i type="logical" name="LOPTICS"> F  </i>
   <v name="STM">      0.00000000      0.00000000      0.00000000      0.00000000      0.00000000      0.00000000      0.00000000</v>
  </separator>
  <separator name="performance" >
   <i type="int" name="NPAR">    48</i>
   <i type="int" name="NSIM">     4</i>
   <i type="int" name="NBLK">    -1</i>
   <i type="logical" name="LPLANE"> T  </i>
   <i type="logical" name="LSCALAPACK"> T  </i>
   <i type="logical" name="LSCAAWARE"> T  </i>
   <i type="logical" name="LSCALU"> F  </i>
   <i type="logical" name="LASYNC"> F  </i>
   <i type="logical" name="LORBITALREAL"> F  </i>
  </separator>
  <separator name="miscellaneous" >
   <i type="int" name="IDIOT">     3</i>
   <i type="logical" name="LMUSIC"> F  </i>
   <v name="POMASS">     28.08500000</v>
   <v name="DARWINR">      0.00000000</v>
   <v name="DARWINV">      1.00000000</v>
   <i type="logical" name="LCORR"> T  </i>
  </separator>
  <i type="logical" name="GGA_COMPAT"> T  </i>
  <i type="logical" name="LBERRY"> F  </i>
  <i type="int" name="ICORELEVEL">     0</i>
  <i type="logical" name="LDAU"> F  </i>
  <i type="int" name="I_CONSTRAINED_M">     0</i>
  <separator name="electronic exchange-correlation" >
   <i type="string" name="GGA">--</i>
   <i type="int" name="VOSKOWN">     0</i>
   <i type="logical" name="LHFCALC"> F  </i>
   <i type="string" name="PRECFOCK"></i>
   <i type="logical" name="LSYMGRAD"> F  </i>
   <i type="logical" name="LHFONE"> F  </i>
   <i type="logical" name="LRHFCALC"> F  </i>
   <i type="logical" name="LTHOMAS"> F  </i>
   <i type="logical" name="LMODELHF"> F  </i>
   <i name="ENCUT4O">     -1.00000000</i>
   <i type="int" name="EXXOEP">     0</i>
   <i type="int" name="FOURORBIT">     0</i>
   <i name="AEXX">      0.00000000</i>
   <i name="HFALPHA">      0.00000000</i>
   <i name="MCALPHA">      0.00000000</i>
   <i name="ALDAX">      1.00000000</i>
   <i name="AGGAX">      1.00000000</i>
   <i name="ALDAC">      1.00000000</i>
   <i name="AGGAC">      1.00000000</i>
   <i type="int" name="NKREDX">     1</i>
   <i type="int" name="NKREDY">     1</i>
   <i type="int" name="NKREDZ">     1</i>
   <i type="logical" name="SHIFTRED"> F  </i>
   <i type="logical" name="ODDONLY"> F  </i>
   <i type="logical" name="EVENONLY"> F  </i>
   <i type="int" name="LMAXFOCK">     0</i>
   <i type="int" name="NMAXFOCKAE">     0</i>
   <i type="logical" name="LFOCKAEDFT"> F  </i>
   <i name="HFSCREEN">      0.00000000</i>
   <i name="HFSCREENC">      0.00000000</i>
   <i type="int" name="NBANDSGWLOW">     0</i>
  </separator>
  <separator name="vdW DFT" >
   <i type="logical" name="LUSE_VDW"> F  </i>
   <i name="Zab_VDW">     -0.84910000</i>
   <i name="PARAM1">      0.12340000</i>
   <i name="PARAM2">      1.00000000</i>
   <i name="PARAM3">      0.00000000</i>
  </separator>
  <separator name="model GW" >
   <i type="int" name="MODEL_GW">     0</i>
   <i name="MODEL_EPS0">     12.27504922</i>
   <i name="MODEL_ALPHA">      1.00000000</i>
  </separator>
  <separator name="linear response parameters" >
   <i type="logical" name="LEPSILON"> T  </i>
   <i type="logical" name="LRPA"> F  </i>
   <i type="logical" name="LNABLA"> F  </i>
   <i type="logical" name="LVEL"> F  </i>
   <i type="int" name="KINTER">     0</i>
   <i name="CSHIFT">      0.10000000</i>
   <i name="OMEGAMAX">     -1.00000000</i>
   <i name="DEG_THRESHOLD">      0.00200000</i>
  </separator>
  <separator name="orbital magnetization" >
   <i type="logical" name="NUCIND"> F  </i>
   <v name="MAGPOS">      0.00000000      0.00000000      0.00000000</v>
   <i type="logical" name="LNICSALL"> T  </i>
   <i type="logical" name="ORBITALMAG"> F  </i>
   <i type="logical" name="LMAGBLOCH"> F  </i>
   <i type="logical" name="LCHIMAG"> F  </i>
   <i type="logical" name="LGAUGE"> T  </i>
   <i type="int" name="MAGATOM">     0</i>
   <v name="MAGDIPOL">      0.00000000      0.00000000      0.00000000</v>
   <v name="AVECCONST">      0.00000000      0.00000000      0.00000000</v>
  </separator>
  <separator name="response functions" >
   <i type="logical" name="LADDER"> F  </i>
   <i type="logical" name="LFXC"> F  </i>
   <i type="logical" name="LHARTREE"> T  </i>
   <i type="int" name="IBSE">     0</i>
   <i type="logical" name="LTCTE"> F  </i>
   <i type="logical" name="LTETE"> F  </i>
   <i type="logical" name="LTRIPLET"> F  </i>
   <i type="logical" name="LFXCEPS"> F  </i>
   <i type="logical" name="L2ORDER"> F  </i>
   <i type="logical" name="LUSEW"> F  </i>
   <i name="ENCUTGW">     -2.00000000</i>
   <i name="ENCUTGWSOFT">     -2.00000000</i>
   <i name="ENCUTLF">     -1.00000000</i>
   <i type="int" name="LMAXMP2">    -1</i>
   <i name="SCISSOR">      0.00000000</i>
   <i type="int" name="NOMEGA">     0</i>
   <i type="int" name="NOMEGAR">     0</i>
   <i type="int" name="NBANDSGW">    -1</i>
   <i type="int" name="NBANDSO">    -1</i>
   <i type="int" name="NBANDSV">    -1</i>
   <i type="int" name="NELM">     1</i>
   <i type="int" name="DIM">     3</i>
   <i type="int" name="ANTIRES">     0</i>
   <i name="OMEGAMAX">    -30.00000000</i>
   <i name="OMEGATL">   -200.00000000</i>
   <i type="int" name="OMEGAGRID">     0</i>
   <i name="CSHIFT">     -0.10000000</i>
   <i type="logical" name="SELFENERGY"> F  </i>
   <i type="logical" name="LSPECTRAL"> F  </i>
   <i type="logical" name="ODDONLYGW"> F  </i>
   <i type="logical" name="EVENONLYGW"> F  </i>
   <i type="int" name="NKREDLFX">     1</i>
   <i type="int" name="NKREDLFY">     1</i>
   <i type="int" name="NKREDLFZ">     1</i>
   <i type="int" name="MAXMEM">  1800</i>
   <i type="int" name="TELESCOPE">     0</i>
  </separator>
 </parameters>
 <atominfo>
  <atoms>       8 </atoms>
  <types>       1 </types>
  <array name="atoms" >
   <dimension dim="1">ion</dimension>
   <field type="string">element</field>
   <field type="int">atomtype</field>
   <set>
    <rc><c>Si</c><c>   1</c></rc>
    <rc><c>Si</c><c>   1</c></rc>
    <rc><c>Si</c><c>   1</c></rc>
    <rc><c>Si</c><c>   1</c></rc>
    <rc><c>Si</c><c>   1</c></rc>
    <rc><c>Si</c><c>   1</c></rc>
    <rc><c>Si</c><c>   1</c></rc>
    <rc><c>Si</c><c>   1</c></rc>
   </set>
  </array>
  <array name="atomtypes" >
   <dimension dim="1">type</dimension>
   <field type="int">atomspertype</field>
   <field type="string">element</field>
   <field>mass</field>
   <field>valence</field>
   <field type="string">pseudopotential</field>
   <set>
    <rc><c>   8</c><c>Si</c><c>     28.08500000</c><c>      4.00000000</c><c>  PAW Si                                </c></rc>
   </set>
  </array>
 </atominfo>
 <structure name="initialpos" >
  <crystal>
   <varray name="basis" >
    <v>       5.47000000       0.00000000       0.00000000 </v>
    <v>       0.00000000       5.47000000       0.00000000 </v>
    <v>       0.00000000       0.00000000       5.47000000 </v>
   </varray>
   <i name="volume">    163.66732300 </i>
   <varray name="rec_basis" >
    <v>       0.18281536       0.00000000       0.00000000 </v>
    <v>       0.00000000       0.18281536       0.00000000 </v>
    <v>       0.00000000       0.00000000       0.18281536 </v>
   </varray>
  </crystal>
  <varray name="positions" >
   <v>       0.99977883       0.99999953       0.99959862 </v>
   <v>       0.24999953       0.24959862       0.25027481 </v>
   <v>       0.49959862       0.50027481       0.00064978 </v>
   <v>       0.75027481       0.75064978       0.25021470 </v>
   <v>       0.50064978       0.00021470       0.50002626 </v>
   <v>       0.75021470       0.25002626       0.75061305 </v>
   <v>       0.00002626       0.50061305       0.49998069 </v>
   <v>       0.25061305       0.74998069       0.75021937 </v>
  </varray>
 </structure>
 <calculation>
  <scstep>
   <time name="dav">    0.40    0.40</time>
   <time name="total">    0.46    0.47</time>
   <energy>
    <i name="alphaZ">     12.68944982 </i>
    <i name="ewald">   -907.56782768 </i>
    <i name="hartreedc">    -45.63582061 </i>
    <i name="XCdc">    -76.79673458 </i>
    <i name="pawpsdc">    265.93453375 </i>
    <i name="pawaedc">   -123.69690146 </i>
    <i name="eentropy">     -0.00013902 </i>
    <i name="bandstr">     38.55120015 </i>
    <i name="atom">    826.37398168 </i>
    <i name="e_fr_energy">    -10.14825796 </i>
    <i name="e_wo_entrp">    -10.14811893 </i>
    <i name="e_0_energy">    -10.14818845 </i>
   </energy>
  </scstep>
  <scstep>
   <time name="dav">    0.98    0.98</time>
   <time name="total">    0.98    0.99</time>
   <energy>
    <i name="e_fr_energy">    -34.45054438 </i>
    <i name="e_wo_entrp">    -34.45054438 </i>
    <i name="e_0_energy">    -34.45054438 </i>
   </energy>
  </scstep>
  <scstep>
   <time name="dav">    0.39    0.39</time>
   <time name="total">    0.39    0.40</time>
   <energy>
    <i name="e_fr_energy">    -34.61773828 </i>
    <i name="e_wo_entrp">    -34.61773828 </i>
    <i name="e_0_energy">    -34.61773828 </i>
   </energy>
  </scstep>
  <scstep>
   <time name="dav">    2.00    2.00</time>
   <time name="total">    2.00    2.01</time>
   <energy>
    <i name="e_fr_energy">    -34.61809277 </i>
    <i name="e_wo_entrp">    -34.61809277 </i>
    <i name="e_0_energy">    -34.61809277 </i>
   </energy>
  </scstep>
  <scstep>
   <time name="dav">    0.38    0.38</time>
   <time name="total">    0.41    0.42</time>
   <energy>
    <i name="e_fr_energy">    -34.61809277 </i>
    <i name="e_wo_entrp">    -34.61809277 </i>
    <i name="e_0_energy">    -34.61809277 </i>
   </energy>
  </scstep>
  <scstep>
   <time name="diag">    0.03    0.03</time>
   <time name="diis">    0.05    0.05</time>
   <time name="orth">    0.01    0.01</time>
   <time name="total">    0.15    0.16</time>
   <energy>
    <i name="e_fr_energy">    -33.61641011 </i>
    <i name="e_wo_entrp">    -33.61641011 </i>
    <i name="e_0_energy">    -33.61641011 </i>
   </energy>
  </scstep>
  <scstep>
   <time name="diag">    0.02    0.02</time>
   <time name="diis">    0.03    0.04</time>
   <time name="orth">    0.01    0.01</time>
   <time name="total">    0.12    0.13</time>
   <energy>
    <i name="e_fr_energy">    -33.19176873 </i>
    <i name="e_wo_entrp">    -33.19176873 </i>
    <i name="e_0_energy">    -33.19176873 </i>
   </energy>
  </scstep>
  <scstep>
   <time name="diag">    0.02    0.02</time>
   <time name="diis">    0.04    0.05</time>
   <time name="orth">    0.01    0.01</time>
   <time name="total">    0.14    0.14</time>
   <energy>
    <i name="e_fr_energy">    -33.22374796 </i>
    <i name="e_wo_entrp">    -33.22374796 </i>
    <i name="e_0_energy">    -33.22374796 </i>
   </energy>
  </scstep>
  <scstep>
   <time name="diag">    0.02    0.02</time>
   <time name="diis">    0.04    0.05</time>
   <time name="orth">    0.01    0.01</time>
   <time name="total">    0.14    0.15</time>
   <energy>
    <i name="e_fr_energy">    -33.22487554 </i>
    <i name="e_wo_entrp">    -33.22487554 </i>
    <i name="e_0_energy">    -33.22487554 </i>
   </energy>
  </scstep>
  <scstep>
   <time name="diag">    0.02    0.02</time>
   <time name="diis">    0.04    0.04</time>
   <time name="orth">    0.01    0.01</time>
   <time name="total">    0.13    0.14</time>
   <energy>
    <i name="e_fr_energy">    -33.22506139 </i>
    <i name="e_wo_entrp">    -33.22506139 </i>
    <i name="e_0_energy">    -33.22506139 </i>
   </energy>
  </scstep>
  <scstep>
   <time name="diag">    0.02    0.02</time>
   <time name="diis">    0.05    0.05</time>
   <time name="orth">    0.01    0.01</time>
   <time name="total">    0.14    0.14</time>
   <energy>
    <i name="e_fr_energy">    -33.22505712 </i>
    <i name="e_wo_entrp">    -33.22505712 </i>
    <i name="e_0_energy">    -33.22505712 </i>
   </energy>
  </scstep>
  <scstep>
   <time name="diag">    0.02    0.02</time>
   <time name="diis">    0.05    0.05</time>
   <time name="orth">    0.01    0.01</time>
   <time name="total">    0.14    0.15</time>
   <energy>
    <i name="e_fr_energy">    -33.22505765 </i>
    <i name="e_wo_entrp">    -33.22505765 </i>
    <i name="e_0_energy">    -33.22505765 </i>
   </energy>
  </scstep>
  <scstep>
   <time name="diag">    0.02    0.02</time>
   <time name="diis">    0.06    0.06</time>
   <time name="orth">    0.01    0.01</time>
   <time name="total">    0.15    0.15</time>
   <energy>
    <i name="e_fr_energy">    -33.22505761 </i>
    <i name="e_wo_entrp">    -33.22505761 </i>
    <i name="e_0_energy">    -33.22505761 </i>
   </energy>
  </scstep>
  <scstep>
   <time name="diag">    0.02    0.02</time>
   <time name="diis">    0.07    0.07</time>
   <time name="orth">    0.01    0.01</time>
   <time name="total">    0.16    0.16</time>
   <energy>
    <i name="e_fr_energy">    -33.22505746 </i>
    <i name="e_wo_entrp">    -33.22505746 </i>
    <i name="e_0_energy">    -33.22505746 </i>
   </energy>
  </scstep>
  <scstep>
   <time name="diag">    0.02    0.02</time>
   <time name="diis">    0.05    0.05</time>
   <time name="orth">    0.01    0.01</time>
   <time name="total">    0.12    0.13</time>
   <energy>
    <i name="alphaZ">     12.68944982 </i>
    <i name="ewald">   -907.56782768 </i>
    <i name="hartreedc">    -70.83177206 </i>
    <i name="XCdc">    -72.91084562 </i>
    <i name="pawpsdc">    307.74068954 </i>
    <i name="pawaedc">   -166.58187941 </i>
    <i name="eentropy">      0.00000000 </i>
    <i name="bandstr">     37.86314626 </i>
    <i name="atom">    826.37398168 </i>
    <i name="e_fr_energy">    -33.22505747 </i>
    <i name="e_wo_entrp">    -33.22505747 </i>
    <i name="e_0_energy">    -33.22505747 </i>
   </energy>
  </scstep>
  <structure>
   <crystal>
    <varray name="basis" >
     <v>       5.47000000       0.00000000       0.00000000 </v>
     <v>       0.00000000       5.47000000       0.00000000 </v>
     <v>       0.00000000       0.00000000       5.47000000 </v>
    </varray>
    <i name="volume">    163.66732300 </i>
    <varray name="rec_basis" >
     <v>       0.18281536       0.00000000       0.00000000 </v>
     <v>       0.00000000       0.18281536       0.00000000 </v>
     <v>       0.00000000       0.00000000       0.18281536 </v>
    </varray>
   </crystal>
   <varray name="positions" >
    <v>       0.99977883       0.99999953       0.99959862 </v>
    <v>       0.24999953       0.24959862       0.25027481 </v>
    <v>       0.49959862       0.50027481       0.00064978 </v>
    <v>       0.75027481       0.75064978       0.25021470 </v>
    <v>       0.50064978       0.00021470       0.50002626 </v>
    <v>       0.75021470       0.25002626       0.75061305 </v>
    <v>       0.00002626       0.50061305       0.49998069 </v>
    <v>       0.25061305       0.74998069       0.75021937 </v>
   </varray>
  </structure>
  <varray name="forces" >
   <v>       0.04764046      -0.02191933       0.01000604 </v>
   <v>      -0.04290357       0.00186508      -0.00584960 </v>
   <v>       0.03231088      -0.02817825       0.03441149 </v>
   <v>      -0.01689059      -0.00925691      -0.03507299 </v>
   <v>       0.00502061       0.00132874       0.03557785 </v>
   <v>      -0.03005330       0.06824191      -0.02578890 </v>
   <v>       0.01584163      -0.03189786       0.02269423 </v>
   <v>      -0.01096611       0.01981662      -0.03597811 </v>
  </varray>
  <varray name="stress" >
   <v>      81.05215094      -0.59831150       0.47237006 </v>
   <v>      -0.59831151      81.04806040      -0.58858775 </v>
   <v>       0.47237002      -0.58858777      81.05765848 </v>
  </varray>
  <energy>
   <i name="e_fr_energy">    -33.22505747 </i>
   <i name="e_wo_entrp">    -33.22505747 </i>
   <i name="e_0_energy">      0.00000000 </i>
  </energy>
  <scstep>
   <time name="total">    0.04    0.04</time>
   <energy>
    <i name="e_fr_energy">   -448.75551532 </i>
    <i name="e_wo_entrp">   -448.75551532 </i>
    <i name="e_0_energy">   -448.75551532 </i>
   </energy>
  </scstep>
  <scstep>
   <time name="total">    0.04    0.04</time>
   <energy>
    <i name="e_fr_energy">   -399.98188087 </i>
    <i name="e_wo_entrp">   -399.98188087 </i>
    <i name="e_0_energy">   -399.98188087 </i>
   </energy>
  </scstep>
  <scstep>
   <time name="total">    0.04    0.04</time>
   <energy>
    <i name="e_fr_energy">   -409.79823588 </i>
    <i name="e_wo_entrp">   -409.79823588 </i>
    <i name="e_0_energy">   -409.79823588 </i>
   </energy>
  </scstep>
  <scstep>
   <time name="total">    0.03    0.04</time>
   <energy>
    <i name="e_fr_energy">   -410.04994844 </i>
    <i name="e_wo_entrp">   -410.04994844 </i>
    <i name="e_0_energy">   -410.04994844 </i>
   </energy>
  </scstep>
  <scstep>
   <time name="total">    0.03    0.04</time>
   <energy>
    <i name="e_fr_energy">   -409.54347827 </i>
    <i name="e_wo_entrp">   -409.54347827 </i>
    <i name="e_0_energy">   -409.54347827 </i>
   </energy>
  </scstep>
  <scstep>
   <time name="total">    0.04    0.05</time>
   <energy>
    <i name="e_fr_energy">   -409.59440462 </i>
    <i name="e_wo_entrp">   -409.59440462 </i>
    <i name="e_0_energy">   -409.59440462 </i>
   </energy>
  </scstep>
  <scstep>
   <time name="total">    0.04    0.04</time>
   <energy>
    <i name="e_fr_energy">   -466.32789076 </i>
    <i name="e_wo_entrp">   -466.32789076 </i>
    <i name="e_0_energy">   -466.32789076 </i>
   </energy>
  </scstep>
  <scstep>
   <time name="total">    0.04    0.04</time>
   <energy>
    <i name="e_fr_energy">   -403.73894951 </i>
    <i name="e_wo_entrp">   -403.73894951 </i>
    <i name="e_0_energy">   -403.73894951 </i>
   </energy>
  </scstep>
  <scstep>
   <time name="total">    0.04    0.04</time>
   <energy>
    <i name="e_fr_energy">   -424.38646751 </i>
    <i name="e_wo_entrp">   -424.38646751 </i>
    <i name="e_0_energy">   -424.38646751 </i>
   </energy>
  </scstep>
  <scstep>
   <time name="total">    0.03    0.04</time>
   <energy>
    <i name="e_fr_energy">   -429.41604751 </i>
    <i name="e_wo_entrp">   -429.41604751 </i>
    <i name="e_0_energy">   -429.41604751 </i>
   </energy>
  </scstep>
  <scstep>
   <time name="total">    0.03    0.04</time>
   <energy>
    <i name="e_fr_energy">   -427.53230940 </i>
    <i name="e_wo_entrp">   -427.53230940 </i>
    <i name="e_0_energy">   -427.53230940 </i>
   </energy>
  </scstep>
  <scstep>
   <time name="total">    0.03    0.04</time>
   <energy>
    <i name="e_fr_energy">   -427.08371920 </i>
    <i name="e_wo_entrp">   -427.08371920 </i>
    <i name="e_0_energy">   -427.08371920 </i>
   </energy>
  </scstep>
  <scstep>
   <time name="total">    0.04    0.04</time>
   <energy>
    <i name="e_fr_energy">   -430.09118262 </i>
    <i name="e_wo_entrp">   -430.09118262 </i>
    <i name="e_0_energy">   -430.09118262 </i>
   </energy>
  </scstep>
  <scstep>
   <time name="total">    0.04    0.04</time>
   <energy>
    <i name="e_fr_energy">   -110.39443854 </i>
    <i name="e_wo_entrp">   -110.39443854 </i>
    <i name="e_0_energy">   -110.39443854 </i>
   </energy>
  </scstep>
  <scstep>
   <time name="total">    0.04    0.04</time>
   <energy>
    <i name="e_fr_energy">   -150.58754833 </i>
    <i name="e_wo_entrp">   -150.58754833 </i>
    <i name="e_0_energy">   -150.58754833 </i>
   </energy>
  </scstep>
  <scstep>
   <time name="total">    0.03    0.04</time>
   <energy>
    <i name="e_fr_energy">   -153.90682252 </i>
    <i name="e_wo_entrp">   -153.90682252 </i>
    <i name="e_0_energy">   -153.90682252 </i>
   </energy>
  </scstep>
  <scstep>
   <time name="total">    0.03    0.04</time>
   <energy>
    <i name="e_fr_energy">   -146.52615260 </i>
    <i name="e_wo_entrp">   -146.52615260 </i>
    <i name="e_0_energy">   -146.52615260 </i>
   </energy>
  </scstep>
  <scstep>
   <time name="total">    0.03    0.04</time>
   <energy>
    <i name="e_fr_energy">   -148.03304499 </i>
    <i name="e_wo_entrp">   -148.03304499 </i>
    <i name="e_0_energy">   -148.03304499 </i>
   </energy>
  </scstep>
  <scstep>
   <time name="total">    0.45    0.45</time>
   <energy>
    <i name="e_fr_energy">    -24.45726811 </i>
    <i name="e_wo_entrp">    -24.45726811 </i>
    <i name="e_0_energy">    -24.45726811 </i>
   </energy>
  </scstep>
  <scstep>
   <time name="total">    0.13    0.13</time>
   <energy>
    <i name="e_fr_energy">    -26.39519172 </i>
    <i name="e_wo_entrp">    -26.39519172 </i>
    <i name="e_0_energy">    -26.39519172 </i>
   </energy>
  </scstep>
  <scstep>
   <time name="total">    0.13    0.13</time>
   <energy>
    <i name="e_fr_energy">    -26.39588256 </i>
    <i name="e_wo_entrp">    -26.39588256 </i>
    <i name="e_0_energy">    -26.39588256 </i>
   </energy>
  </scstep>
  <scstep>
   <time name="total">    0.13    0.13</time>
   <energy>
    <i name="e_fr_energy">    -26.39588457 </i>
    <i name="e_wo_entrp">    -26.39588457 </i>
    <i name="e_0_energy">    -26.39588457 </i>
   </energy>
  </scstep>
  <scstep>
   <time name="total">    0.13    0.13</time>
   <energy>
    <i name="e_fr_energy">    -26.39588458 </i>
    <i name="e_wo_entrp">    -26.39588458 </i>
    <i name="e_0_energy">    -26.39588458 </i>
   </energy>
  </scstep>
  <scstep>
   <time name="total">    0.13    0.13</time>
   <energy>
    <i name="e_fr_energy">    -24.48305025 </i>
    <i name="e_wo_entrp">    -24.48305025 </i>
    <i name="e_0_energy">    -24.48305025 </i>
   </energy>
  </scstep>
  <scstep>
   <time name="total">    0.13    0.13</time>
   <energy>
    <i name="e_fr_energy">    -26.39498012 </i>
    <i name="e_wo_entrp">    -26.39498012 </i>
    <i name="e_0_energy">    -26.39498012 </i>
   </energy>
  </scstep>
  <scstep>
   <time name="total">    0.13    0.13</time>
   <energy>
    <i name="e_fr_energy">    -26.39564050 </i>
    <i name="e_wo_entrp">    -26.39564050 </i>
    <i name="e_0_energy">    -26.39564050 </i>
   </energy>
  </scstep>
  <scstep>
   <time name="total">    0.13    0.13</time>
   <energy>
    <i name="e_fr_energy">    -26.39564248 </i>
    <i name="e_wo_entrp">    -26.39564248 </i>
    <i name="e_0_energy">    -26.39564248 </i>
   </energy>
  </scstep>
  <scstep>
   <time name="total">    0.13    0.13</time>
   <energy>
    <i name="e_fr_energy">    -26.39564248 </i>
    <i name="e_wo_entrp">    -26.39564248 </i>
    <i name="e_0_energy">    -26.39564248 </i>
   </energy>
  </scstep>
  <scstep>
   <time name="total">    0.13    0.13</time>
   <energy>
    <i name="e_fr_energy">    -24.45804589 </i>
    <i name="e_wo_entrp">    -24.45804589 </i>
    <i name="e_0_energy">    -24.45804589 </i>
   </energy>
  </scstep>
  <scstep>
   <time name="total">    0.13    0.13</time>
   <energy>
    <i name="e_fr_energy">    -26.38743839 </i>
    <i name="e_wo_entrp">    -26.38743839 </i>
    <i name="e_0_energy">    -26.38743839 </i>
   </energy>
  </scstep>
  <scstep>
   <time name="total">    0.13    0.13</time>
   <energy>
    <i name="e_fr_energy">    -26.38811694 </i>
    <i name="e_wo_entrp">    -26.38811694 </i>
    <i name="e_0_energy">    -26.38811694 </i>
   </energy>
  </scstep>
  <scstep>
   <time name="total">    0.13    0.13</time>
   <energy>
    <i name="e_fr_energy">    -26.38811892 </i>
    <i name="e_wo_entrp">    -26.38811892 </i>
    <i name="e_0_energy">    -26.38811892 </i>
   </energy>
  </scstep>
  <scstep>
   <time name="total">    0.13    0.13</time>
   <energy>
    <i name="e_fr_energy">    -26.38811893 </i>
    <i name="e_wo_entrp">    -26.38811893 </i>
    <i name="e_0_energy">    -26.38811893 </i>
   </energy>
  </scstep>
  <varray name="epsilon_rpa" >
   <v>      59.36737665       0.19002515      -0.16466493 </v>
   <v>       0.19001445      59.36684131       0.18549668 </v>
   <v>      -0.16467648       0.18548509      59.35020437 </v>
  </varray>
  <kpoints>
   <generation param="Gamma">
    <v type="int" name="divisions">       1        1        1 </v>
    <v name="usershift">      0.00000000       0.00000000       0.00000000 </v>
    <v name="genvec1">      1.00000000       0.00000000       0.00000000 </v>
    <v name="genvec2">      0.00000000       1.00000000       0.00000000 </v>
    <v name="genvec3">      0.00000000       0.00000000       1.00000000 </v>
    <v name="shift">      0.00000000       0.00000000       0.00000000 </v>
   </generation>
   <varray name="kpointlist" >
    <v>       0.00000000       0.00000000       0.00000000 </v>
   </varray>
   <varray name="weights" >
    <v>       1.00000000 </v>
   </varray>
  </kpoints>
  <scstep>
   <time name="total">    0.13    0.13</time>
   <energy>
    <i name="e_fr_energy">    -24.45726811 </i>
    <i name="e_wo_entrp">    -24.45726811 </i>
    <i name="e_0_energy">    -24.45726811 </i>
   </energy>
  </scstep>
  <scstep>
   <time name="total">    0.15    0.16</time>
   <energy>
    <i name="e_fr_energy">    -26.39519172 </i>
    <i name="e_wo_entrp">    -26.39519172 </i>
    <i name="e_0_energy">    -26.39519172 </i>
   </energy>
  </scstep>
  <scstep>
   <time name="total">    0.15    0.16</time>
   <energy>
    <i name="e_fr_energy">    -25.95061404 </i>
    <i name="e_wo_entrp">    -25.95061404 </i>
    <i name="e_0_energy">    -25.95061404 </i>
   </energy>
  </scstep>
  <scstep>
   <time name="total">    0.15    0.15</time>
   <energy>
    <i name="e_fr_energy">    -27.69070646 </i>
    <i name="e_wo_entrp">    -27.69070646 </i>
    <i name="e_0_energy">    -27.69070646 </i>
   </energy>
  </scstep>
  <scstep>
   <time name="total">    0.15    0.16</time>
   <energy>
    <i name="e_fr_energy">    -28.18384587 </i>
    <i name="e_wo_entrp">    -28.18384587 </i>
    <i name="e_0_energy">    -28.18384587 </i>
   </energy>
  </scstep>
  <scstep>
   <time name="total">    0.15    0.15</time>
   <energy>
    <i name="e_fr_energy">    -28.23952469 </i>
    <i name="e_wo_entrp">    -28.23952469 </i>
    <i name="e_0_energy">    -28.23952469 </i>
   </energy>
  </scstep>
  <scstep>
   <time name="total">    0.15    0.16</time>
   <energy>
    <i name="e_fr_energy">    -28.27861757 </i>
    <i name="e_wo_entrp">    -28.27861757 </i>
    <i name="e_0_energy">    -28.27861757 </i>
   </energy>
  </scstep>
  <scstep>
   <time name="total">    0.15    0.16</time>
   <energy>
    <i name="e_fr_energy">    -28.28230348 </i>
    <i name="e_wo_entrp">    -28.28230348 </i>
    <i name="e_0_energy">    -28.28230348 </i>
   </energy>
  </scstep>
  <scstep>
   <time name="total">    0.15    0.16</time>
   <energy>
    <i name="e_fr_energy">    -28.28234150 </i>
    <i name="e_wo_entrp">    -28.28234150 </i>
    <i name="e_0_energy">    -28.28234150 </i>
   </energy>
  </scstep>
  <scstep>
   <time name="total">    0.15    0.15</time>
   <energy>
    <i name="e_fr_energy">    -28.28265684 </i>
    <i name="e_wo_entrp">    -28.28265684 </i>
    <i name="e_0_energy">    -28.28265684 </i>
   </energy>
  </scstep>
  <scstep>
   <time name="total">    0.15    0.16</time>
   <energy>
    <i name="e_fr_energy">    -28.28264900 </i>
    <i name="e_wo_entrp">    -28.28264900 </i>
    <i name="e_0_energy">    -28.28264900 </i>
   </energy>
  </scstep>
  <scstep>
   <time name="total">    0.15    0.15</time>
   <energy>
    <i name="e_fr_energy">    -28.28265006 </i>
    <i name="e_wo_entrp">    -28.28265006 </i>
    <i name="e_0_energy">    -28.28265006 </i>
   </energy>
  </scstep>
  <scstep>
   <time name="total">    0.15    0.15</time>
   <energy>
    <i name="e_fr_energy">    -28.28265029 </i>
    <i name="e_wo_entrp">    -28.28265029 </i>
    <i name="e_0_energy">    -28.28265029 </i>
   </energy>
  </scstep>
  <kpoints>
   <generation param="Gamma">
    <v type="int" name="divisions">       1        1        1 </v>
    <v name="usershift">      0.00000000       0.00000000       0.00000000 </v>
    <v name="genvec1">      1.00000000       0.00000000       0.00000000 </v>
    <v name="genvec2">      0.00000000       1.00000000       0.00000000 </v>
    <v name="genvec3">      0.00000000       0.00000000       1.00000000 </v>
    <v name="shift">      0.00000000       0.00000000       0.00000000 </v>
   </generation>
   <varray name="kpointlist" >
    <v>       0.00000000       0.00000000       0.00000000 </v>
   </varray>
   <varray name="weights" >
    <v>       1.00000000 </v>
   </varray>
  </kpoints>
  <scstep>
   <time name="total">    0.14    0.14</time>
   <energy>
    <i name="e_fr_energy">    -24.48305025 </i>
    <i name="e_wo_entrp">    -24.48305025 </i>
    <i name="e_0_energy">    -24.48305025 </i>
   </energy>
  </scstep>
  <scstep>
   <time name="total">    0.15    0.16</time>
   <energy>
    <i name="e_fr_energy">    -26.39498012 </i>
    <i name="e_wo_entrp">    -26.39498012 </i>
    <i name="e_0_energy">    -26.39498012 </i>
   </energy>
  </scstep>
  <scstep>
   <time name="total">    0.15    0.15</time>
   <energy>
    <i name="e_fr_energy">    -25.95045452 </i>
    <i name="e_wo_entrp">    -25.95045452 </i>
    <i name="e_0_energy">    -25.95045452 </i>
   </energy>
  </scstep>
  <scstep>
   <time name="total">    0.15    0.16</time>
   <energy>
    <i name="e_fr_energy">    -27.69180765 </i>
    <i name="e_wo_entrp">    -27.69180765 </i>
    <i name="e_0_energy">    -27.69180765 </i>
   </energy>
  </scstep>
  <scstep>
   <time name="total">    0.15    0.15</time>
   <energy>
    <i name="e_fr_energy">    -28.18555228 </i>
    <i name="e_wo_entrp">    -28.18555228 </i>
    <i name="e_0_energy">    -28.18555228 </i>
   </energy>
  </scstep>
  <scstep>
   <time name="total">    0.15    0.15</time>
   <energy>
    <i name="e_fr_energy">    -28.23975012 </i>
    <i name="e_wo_entrp">    -28.23975012 </i>
    <i name="e_0_energy">    -28.23975012 </i>
   </energy>
  </scstep>
  <scstep>
   <time name="total">    0.17    0.17</time>
   <energy>
    <i name="e_fr_energy">    -28.27831790 </i>
    <i name="e_wo_entrp">    -28.27831790 </i>
    <i name="e_0_energy">    -28.27831790 </i>
   </energy>
  </scstep>
  <scstep>
   <time name="total">    0.17    0.18</time>
   <energy>
    <i name="e_fr_energy">    -28.28187373 </i>
    <i name="e_wo_entrp">    -28.28187373 </i>
    <i name="e_0_energy">    -28.28187373 </i>
   </energy>
  </scstep>
  <scstep>
   <time name="total">    0.15    0.16</time>
   <energy>
    <i name="e_fr_energy">    -28.28192270 </i>
    <i name="e_wo_entrp">    -28.28192270 </i>
    <i name="e_0_energy">    -28.28192270 </i>
   </energy>
  </scstep>
  <scstep>
   <time name="total">    0.15    0.16</time>
   <energy>
    <i name="e_fr_energy">    -28.28223059 </i>
    <i name="e_wo_entrp">    -28.28223059 </i>
    <i name="e_0_energy">    -28.28223059 </i>
   </energy>
  </scstep>
  <scstep>
   <time name="total">    0.15    0.15</time>
   <energy>
    <i name="e_fr_energy">    -28.28222351 </i>
    <i name="e_wo_entrp">    -28.28222351 </i>
    <i name="e_0_energy">    -28.28222351 </i>
   </energy>
  </scstep>
  <scstep>
   <time name="total">    0.15    0.15</time>
   <energy>
    <i name="e_fr_energy">    -28.28222472 </i>
    <i name="e_wo_entrp">    -28.28222472 </i>
    <i name="e_0_energy">    -28.28222472 </i>
   </energy>
  </scstep>
  <scstep>
   <time name="total">    0.15    0.15</time>
   <energy>
    <i name="e_fr_energy">    -28.28222497 </i>
    <i name="e_wo_entrp">    -28.28222497 </i>
    <i name="e_0_energy">    -28.28222497 </i>
   </energy>
  </scstep>
  <kpoints>
   <generation param="Gamma">
    <v type="int" name="divisions">       1        1        1 </v>
    <v name="usershift">      0.00000000       0.00000000       0.00000000 </v>
    <v name="genvec1">      1.00000000       0.00000000       0.00000000 </v>
    <v name="genvec2">      0.00000000       1.00000000       0.00000000 </v>
    <v name="genvec3">      0.00000000       0.00000000       1.00000000 </v>
    <v name="shift">      0.00000000       0.00000000       0.00000000 </v>
   </generation>
   <varray name="kpointlist" >
    <v>       0.00000000       0.00000000       0.00000000 </v>
   </varray>
   <varray name="weights" >
    <v>       1.00000000 </v>
   </varray>
  </kpoints>
  <scstep>
   <time name="total">    0.13    0.13</time>
   <energy>
    <i name="e_fr_energy">    -24.45804589 </i>
    <i name="e_wo_entrp">    -24.45804589 </i>
    <i name="e_0_energy">    -24.45804589 </i>
   </energy>
  </scstep>
  <scstep>
   <time name="total">    0.15    0.16</time>
   <energy>
    <i name="e_fr_energy">    -26.38743839 </i>
    <i name="e_wo_entrp">    -26.38743839 </i>
    <i name="e_0_energy">    -26.38743839 </i>
   </energy>
  </scstep>
  <scstep>
   <time name="total">    0.15    0.16</time>
   <energy>
    <i name="e_fr_energy">    -25.94483796 </i>
    <i name="e_wo_entrp">    -25.94483796 </i>
    <i name="e_0_energy">    -25.94483796 </i>
   </energy>
  </scstep>
  <scstep>
   <time name="total">    0.15    0.16</time>
   <energy>
    <i name="e_fr_energy">    -27.68987883 </i>
    <i name="e_wo_entrp">    -27.68987883 </i>
    <i name="e_0_energy">    -27.68987883 </i>
   </energy>
  </scstep>
  <scstep>
   <time name="total">    0.15    0.15</time>
   <energy>
    <i name="e_fr_energy">    -28.18870484 </i>
    <i name="e_wo_entrp">    -28.18870484 </i>
    <i name="e_0_energy">    -28.18870484 </i>
   </energy>
  </scstep>
  <scstep>
   <time name="total">    0.14    0.15</time>
   <energy>
    <i name="e_fr_energy">    -28.23997186 </i>
    <i name="e_wo_entrp">    -28.23997186 </i>
    <i name="e_0_energy">    -28.23997186 </i>
   </energy>
  </scstep>
  <scstep>
   <time name="total">    0.15    0.15</time>
   <energy>
    <i name="e_fr_energy">    -28.27303316 </i>
    <i name="e_wo_entrp">    -28.27303316 </i>
    <i name="e_0_energy">    -28.27303316 </i>
   </energy>
  </scstep>
  <scstep>
   <time name="total">    0.15    0.16</time>
   <energy>
    <i name="e_fr_energy">    -28.27592309 </i>
    <i name="e_wo_entrp">    -28.27592309 </i>
    <i name="e_0_energy">    -28.27592309 </i>
   </energy>
  </scstep>
  <scstep>
   <time name="total">    0.15    0.16</time>
   <energy>
    <i name="e_fr_energy">    -28.27607424 </i>
    <i name="e_wo_entrp">    -28.27607424 </i>
    <i name="e_0_energy">    -28.27607424 </i>
   </energy>
  </scstep>
  <scstep>
   <time name="total">    0.15    0.15</time>
   <energy>
    <i name="e_fr_energy">    -28.27629744 </i>
    <i name="e_wo_entrp">    -28.27629744 </i>
    <i name="e_0_energy">    -28.27629744 </i>
   </energy>
  </scstep>
  <scstep>
   <time name="total">    0.15    0.16</time>
   <energy>
    <i name="e_fr_energy">    -28.27628743 </i>
    <i name="e_wo_entrp">    -28.27628743 </i>
    <i name="e_0_energy">    -28.27628743 </i>
   </energy>
  </scstep>
  <scstep>
   <time name="total">    0.15    0.16</time>
   <energy>
    <i name="e_fr_energy">    -28.27629112 </i>
    <i name="e_wo_entrp">    -28.27629112 </i>
    <i name="e_0_energy">    -28.27629112 </i>
   </energy>
  </scstep>
  <scstep>
   <time name="total">    0.15    0.16</time>
   <energy>
    <i name="e_fr_energy">    -28.27628877 </i>
    <i name="e_wo_entrp">    -28.27628877 </i>
    <i name="e_0_energy">    -28.27628877 </i>
   </energy>
  </scstep>
  <varray name="epsilon" >
   <v>      56.86243092       0.18666608      -0.16193586 </v>
   <v>       0.18665821      56.86247217       0.18276027 </v>
   <v>      -0.16194609       0.18275182      56.85034280 </v>
  </varray>
  <kpoints>
   <generation param="Gamma">
    <v type="int" name="divisions">       1        1        1 </v>
    <v name="usershift">      0.00000000       0.00000000       0.00000000 </v>
    <v name="genvec1">      1.00000000       0.00000000       0.00000000 </v>
    <v name="genvec2">      0.00000000       1.00000000       0.00000000 </v>
    <v name="genvec3">      0.00000000       0.00000000       1.00000000 </v>
    <v name="shift">      0.00000000       0.00000000       0.00000000 </v>
   </generation>
   <varray name="kpointlist" >
    <v>       0.00000000       0.00000000       0.00000000 </v>
   </varray>
   <varray name="weights" >
    <v>       1.00000000 </v>
   </varray>
  </kpoints>
  <time name="totalsc">   19.62   20.10</time>
  <eigenvalues>
   <array>
    <dimension dim="1">band</dimension>
    <dimension dim="2">kpoint</dimension>
    <dimension dim="3">spin</dimension>
    <field>eigene</field>
    <field>occ</field>
    <set>
     <set comment="spin 1">
      <set comment="kpoint 1">
       <r>   -5.9500    1.0000 </r>
       <r>   -1.8749    1.0000 </r>
       <r>   -1.8731    1.0000 </r>
       <r>   -1.8668    1.0000 </r>
       <r>   -1.8610    1.0000 </r>
       <r>   -1.8586    1.0000 </r>
       <r>   -1.8552    1.0000 </r>
       <r>    3.0455    1.0000 </r>
       <r>    3.0478    1.0000 </r>
       <r>    3.0496    1.0000 </r>
       <r>    3.0532    1.0000 </r>
       <r>    3.0536    1.0000 </r>
       <r>    3.0551    1.0000 </r>
       <r>    5.9087    1.0000 </r>
       <r>    5.9278    1.0000 </r>
       <r>    5.9298    1.0000 </r>
       <r>    6.5887    0.0000 </r>
       <r>    6.5896    0.0000 </r>
       <r>    6.5939    0.0000 </r>
       <r>    6.5980    0.0000 </r>
       <r>    6.6017    0.0000 </r>
       <r>    6.6026    0.0000 </r>
       <r>    8.3749    0.0000 </r>
       <r>    8.3761    0.0000 </r>
       <r>    8.3876    0.0000 </r>
       <r>    9.0555    0.0000 </r>
       <r>   13.6115    0.0000 </r>
       <r>   13.6115    0.0000 </r>
       <r>   13.8255    0.0000 </r>
       <r>   15.8218    0.0000 </r>
       <r>   15.8249    0.0000 </r>
       <r>   15.8267    0.0000 </r>
       <r>   15.8282    0.0000 </r>
       <r>   15.8306    0.0000 </r>
       <r>   15.8355    0.0000 </r>
       <r>   16.9491    0.0000 </r>
       <r>   16.9495    0.0000 </r>
       <r>   16.9630    0.0000 </r>
       <r>   16.9760    0.0000 </r>
       <r>   16.9809    0.0000 </r>
       <r>   16.9857    0.0000 </r>
       <r>   16.9876    0.0000 </r>
       <r>   16.9926    0.0000 </r>
       <r>   16.9937    0.0000 </r>
       <r>   18.3998    0.0000 </r>
       <r>   18.4028    0.0000 </r>
       <r>   18.4055    0.0000 </r>
       <r>   18.4136    0.0000 </r>
      </set>
     </set>
    </set>
   </array>
  </eigenvalues>
  <separator name="orbital magnetization" >
   <v name="MAGDIPOLOUT">      0.00000000      0.00000000      0.00000000</v>
  </separator>
  <dos>
   <i name="efermi">      6.07547818 </i>
   <total>
    <array>
     <dimension dim="1">gridpoints</dimension>
     <dimension dim="2">spin</dimension>
     <field>energy</field>
     <field>total</field>
     <field>integrated</field>
     <set>
      <set comment="spin 1">
       <r>    -7.1682     0.0000     0.0000 </r>
       <r>    -7.0789     0.0000     0.0000 </r>
       <r>    -6.9895     0.0000     0.0000 </r>
       <r>    -6.9002     0.0000     0.0000 </r>
       <r>    -6.8109     0.0000     0.0000 </r>
       <r>    -6.7215     0.0000     0.0000 </r>
       <r>    -6.6322     0.0000     0.0000 </r>
       <r>    -6.5429     0.0000     0.0000 </r>
       <r>    -6.4535     0.0000     0.0000 </r>
       <r>    -6.3642     0.0000     0.0000 </r>
       <r>    -6.2749     0.0000     0.0000 </r>
       <r>    -6.1855     0.0000     0.0000 </r>
       <r>    -6.0962     0.0000     0.0000 </r>
       <r>    -6.0069     0.0007     0.0001 </r>
       <r>    -5.9175    22.1454     1.9784 </r>
       <r>    -5.8282     0.2420     2.0000 </r>
       <r>    -5.7389     0.0000     2.0000 </r>
       <r>    -5.6495     0.0000     2.0000 </r>
       <r>    -5.5602     0.0000     2.0000 </r>
       <r>    -5.4709     0.0000     2.0000 </r>
       <r>    -5.3815     0.0000     2.0000 </r>
       <r>    -5.2922     0.0000     2.0000 </r>
       <r>    -5.2029     0.0000     2.0000 </r>
       <r>    -5.1135     0.0000     2.0000 </r>
       <r>    -5.0242     0.0000     2.0000 </r>
       <r>    -4.9349     0.0000     2.0000 </r>
       <r>    -4.8455     0.0000     2.0000 </r>
       <r>    -4.7562     0.0000     2.0000 </r>
       <r>    -4.6669     0.0000     2.0000 </r>
       <r>    -4.5775     0.0000     2.0000 </r>
       <r>    -4.4882     0.0000     2.0000 </r>
       <r>    -4.3989     0.0000     2.0000 </r>
       <r>    -4.3095     0.0000     2.0000 </r>
       <r>    -4.2202     0.0000     2.0000 </r>
       <r>    -4.1309     0.0000     2.0000 </r>
       <r>    -4.0415     0.0000     2.0000 </r>
       <r>    -3.9522     0.0000     2.0000 </r>
       <r>    -3.8629     0.0000     2.0000 </r>
       <r>    -3.7735     0.0000     2.0000 </r>
       <r>    -3.6842     0.0000     2.0000 </r>
       <r>    -3.5949     0.0000     2.0000 </r>
       <r>    -3.5055     0.0000     2.0000 </r>
       <r>    -3.4162     0.0000     2.0000 </r>
       <r>    -3.3269     0.0000     2.0000 </r>
       <r>    -3.2375     0.0000     2.0000 </r>
       <r>    -3.1482     0.0000     2.0000 </r>
       <r>    -3.0589     0.0000     2.0000 </r>
       <r>    -2.9695     0.0000     2.0000 </r>
       <r>    -2.8802     0.0000     2.0000 </r>
       <r>    -2.7909     0.0000     2.0000 </r>
       <r>    -2.7015     0.0000     2.0000 </r>
       <r>    -2.6122     0.0000     2.0000 </r>
       <r>    -2.5229     0.0000     2.0000 </r>
       <r>    -2.4335     0.0000     2.0000 </r>
       <r>    -2.3442     0.0000     2.0000 </r>
       <r>    -2.2549     0.0000     2.0000 </r>
       <r>    -2.1655     0.0000     2.0000 </r>
       <r>    -2.0762     0.0000     2.0000 </r>
       <r>    -1.9869     0.0000     2.0000 </r>
       <r>    -1.8975     2.7149     2.2425 </r>
       <r>    -1.8082   131.5967    13.9985 </r>
       <r>    -1.7189     0.0167    14.0000 </r>
       <r>    -1.6295     0.0000    14.0000 </r>
       <r>    -1.5402     0.0000    14.0000 </r>
       <r>    -1.4509     0.0000    14.0000 </r>
       <r>    -1.3615     0.0000    14.0000 </r>
       <r>    -1.2722     0.0000    14.0000 </r>
       <r>    -1.1829     0.0000    14.0000 </r>
       <r>    -1.0935     0.0000    14.0000 </r>
       <r>    -1.0042     0.0000    14.0000 </r>
       <r>    -0.9149     0.0000    14.0000 </r>
       <r>    -0.8255     0.0000    14.0000 </r>
       <r>    -0.7362     0.0000    14.0000 </r>
       <r>    -0.6469     0.0000    14.0000 </r>
       <r>    -0.5575     0.0000    14.0000 </r>
       <r>    -0.4682     0.0000    14.0000 </r>
       <r>    -0.3789     0.0000    14.0000 </r>
       <r>    -0.2895     0.0000    14.0000 </r>
       <r>    -0.2002     0.0000    14.0000 </r>
       <r>    -0.1109     0.0000    14.0000 </r>
       <r>    -0.0215     0.0000    14.0000 </r>
       <r>     0.0678     0.0000    14.0000 </r>
       <r>     0.1571     0.0000    14.0000 </r>
       <r>     0.2465     0.0000    14.0000 </r>
       <r>     0.3358     0.0000    14.0000 </r>
       <r>     0.4251     0.0000    14.0000 </r>
       <r>     0.5145     0.0000    14.0000 </r>
       <r>     0.6038     0.0000    14.0000 </r>
       <r>     0.6931     0.0000    14.0000 </r>
       <r>     0.7825     0.0000    14.0000 </r>
       <r>     0.8718     0.0000    14.0000 </r>
       <r>     0.9611     0.0000    14.0000 </r>
       <r>     1.0505     0.0000    14.0000 </r>
       <r>     1.1398     0.0000    14.0000 </r>
       <r>     1.2291     0.0000    14.0000 </r>
       <r>     1.3185     0.0000    14.0000 </r>
       <r>     1.4078     0.0000    14.0000 </r>
       <r>     1.4971     0.0000    14.0000 </r>
       <r>     1.5865     0.0000    14.0000 </r>
       <r>     1.6758     0.0000    14.0000 </r>
       <r>     1.7651     0.0000    14.0000 </r>
       <r>     1.8545     0.0000    14.0000 </r>
       <r>     1.9438     0.0000    14.0000 </r>
       <r>     2.0331     0.0000    14.0000 </r>
       <r>     2.1225     0.0000    14.0000 </r>
       <r>     2.2118     0.0000    14.0000 </r>
       <r>     2.3011     0.0000    14.0000 </r>
       <r>     2.3905     0.0000    14.0000 </r>
       <r>     2.4798     0.0000    14.0000 </r>
       <r>     2.5691     0.0000    14.0000 </r>
       <r>     2.6585     0.0000    14.0000 </r>
       <r>     2.7478     0.0000    14.0000 </r>
       <r>     2.8371     0.0000    14.0000 </r>
       <r>     2.9265     0.0000    14.0000 </r>
       <r>     3.0158     1.0909    14.0975 </r>
       <r>     3.1051   133.2254    25.9989 </r>
       <r>     3.1945     0.0120    26.0000 </r>
       <r>     3.2838     0.0000    26.0000 </r>
       <r>     3.3731     0.0000    26.0000 </r>
       <r>     3.4625     0.0000    26.0000 </r>
       <r>     3.5518     0.0000    26.0000 </r>
       <r>     3.6411     0.0000    26.0000 </r>
       <r>     3.7305     0.0000    26.0000 </r>
       <r>     3.8198     0.0000    26.0000 </r>
       <r>     3.9091     0.0000    26.0000 </r>
       <r>     3.9985     0.0000    26.0000 </r>
       <r>     4.0878     0.0000    26.0000 </r>
       <r>     4.1771     0.0000    26.0000 </r>
       <r>     4.2665     0.0000    26.0000 </r>
       <r>     4.3558     0.0000    26.0000 </r>
       <r>     4.4451     0.0000    26.0000 </r>
       <r>     4.5345     0.0000    26.0000 </r>
       <r>     4.6238     0.0000    26.0000 </r>
       <r>     4.7131     0.0000    26.0000 </r>
       <r>     4.8025     0.0000    26.0000 </r>
       <r>     4.8918     0.0000    26.0000 </r>
       <r>     4.9811     0.0000    26.0000 </r>
       <r>     5.0705     0.0000    26.0000 </r>
       <r>     5.1598     0.0000    26.0000 </r>
       <r>     5.2491     0.0000    26.0000 </r>
       <r>     5.3385     0.0000    26.0000 </r>
       <r>     5.4278     0.0000    26.0000 </r>
       <r>     5.5171     0.0000    26.0000 </r>
       <r>     5.6065     0.0000    26.0000 </r>
       <r>     5.6958     0.0000    26.0000 </r>
       <r>     5.7851     0.0000    26.0000 </r>
       <r>     5.8745     0.1764    26.0158 </r>
       <r>     5.9638    66.6842    31.9729 </r>
       <r>     6.0531     0.3036    32.0000 </r>
       <r>     6.1425     0.0000    32.0000 </r>
       <r>     6.2318     0.0000    32.0000 </r>
       <r>     6.3211     0.0000    32.0000 </r>
       <r>     6.4105     0.0000    32.0000 </r>
       <r>     6.4998     0.0000    32.0000 </r>
       <r>     6.5891    44.5775    35.9823 </r>
       <r>     6.6785    89.7508    44.0000 </r>
       <r>     6.7678     0.0000    44.0000 </r>
       <r>     6.8571     0.0000    44.0000 </r>
       <r>     6.9465     0.0000    44.0000 </r>
       <r>     7.0358     0.0000    44.0000 </r>
       <r>     7.1251     0.0000    44.0000 </r>
       <r>     7.2145     0.0000    44.0000 </r>
       <r>     7.3038     0.0000    44.0000 </r>
       <r>     7.3931     0.0000    44.0000 </r>
       <r>     7.4825     0.0000    44.0000 </r>
       <r>     7.5718     0.0000    44.0000 </r>
       <r>     7.6611     0.0000    44.0000 </r>
       <r>     7.7505     0.0000    44.0000 </r>
       <r>     7.8398     0.0000    44.0000 </r>
       <r>     7.9291     0.0000    44.0000 </r>
       <r>     8.0185     0.0000    44.0000 </r>
       <r>     8.1078     0.0000    44.0000 </r>
       <r>     8.1971     0.0000    44.0000 </r>
       <r>     8.2865     0.0000    44.0000 </r>
       <r>     8.3758    27.3233    46.4409 </r>
       <r>     8.4651    39.8408    50.0000 </r>
       <r>     8.5545     0.0000    50.0000 </r>
       <r>     8.6438     0.0000    50.0000 </r>
       <r>     8.7331     0.0000    50.0000 </r>
       <r>     8.8225     0.0000    50.0000 </r>
       <r>     8.9118     0.0000    50.0000 </r>
       <r>     9.0011     0.0014    50.0001 </r>
       <r>     9.0905    22.2372    51.9866 </r>
       <r>     9.1798     0.1495    52.0000 </r>
       <r>     9.2691     0.0000    52.0000 </r>
       <r>     9.3585     0.0000    52.0000 </r>
       <r>     9.4478     0.0000    52.0000 </r>
       <r>     9.5371     0.0000    52.0000 </r>
       <r>     9.6265     0.0000    52.0000 </r>
       <r>     9.7158     0.0000    52.0000 </r>
       <r>     9.8051     0.0000    52.0000 </r>
       <r>     9.8945     0.0000    52.0000 </r>
       <r>     9.9838     0.0000    52.0000 </r>
       <r>    10.0731     0.0000    52.0000 </r>
       <r>    10.1625     0.0000    52.0000 </r>
       <r>    10.2518     0.0000    52.0000 </r>
       <r>    10.3411     0.0000    52.0000 </r>
       <r>    10.4305     0.0000    52.0000 </r>
       <r>    10.5198     0.0000    52.0000 </r>
       <r>    10.6091     0.0000    52.0000 </r>
       <r>    10.6985     0.0000    52.0000 </r>
       <r>    10.7878     0.0000    52.0000 </r>
       <r>    10.8771     0.0000    52.0000 </r>
       <r>    10.9665     0.0000    52.0000 </r>
       <r>    11.0558     0.0000    52.0000 </r>
       <r>    11.1451     0.0000    52.0000 </r>
       <r>    11.2345     0.0000    52.0000 </r>
       <r>    11.3238     0.0000    52.0000 </r>
       <r>    11.4131     0.0000    52.0000 </r>
       <r>    11.5025     0.0000    52.0000 </r>
       <r>    11.5918     0.0000    52.0000 </r>
       <r>    11.6811     0.0000    52.0000 </r>
       <r>    11.7705     0.0000    52.0000 </r>
       <r>    11.8598     0.0000    52.0000 </r>
       <r>    11.9491     0.0000    52.0000 </r>
       <r>    12.0385     0.0000    52.0000 </r>
       <r>    12.1278     0.0000    52.0000 </r>
       <r>    12.2171     0.0000    52.0000 </r>
       <r>    12.3065     0.0000    52.0000 </r>
       <r>    12.3958     0.0000    52.0000 </r>
       <r>    12.4851     0.0000    52.0000 </r>
       <r>    12.5745     0.0000    52.0000 </r>
       <r>    12.6638     0.0000    52.0000 </r>
       <r>    12.7531     0.0000    52.0000 </r>
       <r>    12.8425     0.0000    52.0000 </r>
       <r>    12.9318     0.0000    52.0000 </r>
       <r>    13.0211     0.0000    52.0000 </r>
       <r>    13.1105     0.0000    52.0000 </r>
       <r>    13.1998     0.0000    52.0000 </r>
       <r>    13.2891     0.0000    52.0000 </r>
       <r>    13.3785     0.0000    52.0000 </r>
       <r>    13.4678     0.0000    52.0000 </r>
       <r>    13.5571     0.0027    52.0002 </r>
       <r>    13.6465    44.4733    55.9732 </r>
       <r>    13.7358     0.3001    56.0000 </r>
       <r>    13.8251    10.9794    56.9808 </r>
       <r>    13.9145    11.4086    58.0000 </r>
       <r>    14.0038     0.0000    58.0000 </r>
       <r>    14.0931     0.0000    58.0000 </r>
       <r>    14.1825     0.0000    58.0000 </r>
       <r>    14.2718     0.0000    58.0000 </r>
       <r>    14.3611     0.0000    58.0000 </r>
       <r>    14.4505     0.0000    58.0000 </r>
       <r>    14.5398     0.0000    58.0000 </r>
       <r>    14.6292     0.0000    58.0000 </r>
       <r>    14.7185     0.0000    58.0000 </r>
       <r>    14.8078     0.0000    58.0000 </r>
       <r>    14.8972     0.0000    58.0000 </r>
       <r>    14.9865     0.0000    58.0000 </r>
       <r>    15.0758     0.0000    58.0000 </r>
       <r>    15.1652     0.0000    58.0000 </r>
       <r>    15.2545     0.0000    58.0000 </r>
       <r>    15.3438     0.0000    58.0000 </r>
       <r>    15.4332     0.0000    58.0000 </r>
       <r>    15.5225     0.0000    58.0000 </r>
       <r>    15.6118     0.0000    58.0000 </r>
       <r>    15.7012     0.0000    58.0000 </r>
       <r>    15.7905     0.7351    58.0657 </r>
       <r>    15.8798   133.5619    69.9972 </r>
       <r>    15.9692     0.0312    70.0000 </r>
       <r>    16.0585     0.0000    70.0000 </r>
       <r>    16.1478     0.0000    70.0000 </r>
       <r>    16.2372     0.0000    70.0000 </r>
       <r>    16.3265     0.0000    70.0000 </r>
       <r>    16.4158     0.0000    70.0000 </r>
       <r>    16.5052     0.0000    70.0000 </r>
       <r>    16.5945     0.0000    70.0000 </r>
       <r>    16.6838     0.0000    70.0000 </r>
       <r>    16.7732     0.0000    70.0000 </r>
       <r>    16.8625     0.0000    70.0000 </r>
       <r>    16.9518    32.1275    72.8701 </r>
       <r>    17.0412   169.3463    87.9983 </r>
       <r>    17.1305     0.0186    88.0000 </r>
       <r>    17.2198     0.0000    88.0000 </r>
       <r>    17.3092     0.0000    88.0000 </r>
       <r>    17.3985     0.0000    88.0000 </r>
       <r>    17.4878     0.0000    88.0000 </r>
       <r>    17.5772     0.0000    88.0000 </r>
       <r>    17.6665     0.0000    88.0000 </r>
       <r>    17.7558     0.0000    88.0000 </r>
       <r>    17.8452     0.0000    88.0000 </r>
       <r>    17.9345     0.0000    88.0000 </r>
       <r>    18.0238     0.0000    88.0000 </r>
       <r>    18.1132     0.0000    88.0000 </r>
       <r>    18.2025     0.0000    88.0000 </r>
       <r>    18.2918     0.0000    88.0000 </r>
       <r>    18.3812     4.7028    88.4201 </r>
       <r>    18.4705    84.8487    95.9999 </r>
       <r>    18.5598     0.0007    96.0000 </r>
       <r>    18.6492     0.0000    96.0000 </r>
       <r>    18.7385     0.0000    96.0000 </r>
       <r>    18.8278     0.0000    96.0000 </r>
       <r>    18.9172     0.0000    96.0000 </r>
       <r>    19.0065     0.0000    96.0000 </r>
       <r>    19.0958     0.0000    96.0000 </r>
       <r>    19.1852     0.0000    96.0000 </r>
       <r>    19.2745     0.0000    96.0000 </r>
       <r>    19.3638     0.0000    96.0000 </r>
       <r>    19.4532     0.0000    96.0000 </r>
       <r>    19.5425     0.0000    96.0000 </r>
       <r>    19.6318     0.0000    96.0000 </r>
      </set>
     </set>
    </array>
   </total>
  </dos>
 </calculation>
 <structure name="finalpos" >
  <crystal>
   <varray name="basis" >
    <v>       5.47000000       0.00000000       0.00000000 </v>
    <v>       0.00000000       5.47000000       0.00000000 </v>
    <v>       0.00000000       0.00000000       5.47000000 </v>
   </varray>
   <i name="volume">    163.66732300 </i>
   <varray name="rec_basis" >
    <v>       0.18281536       0.00000000       0.00000000 </v>
    <v>       0.00000000       0.18281536       0.00000000 </v>
    <v>       0.00000000       0.00000000       0.18281536 </v>
   </varray>
  </crystal>
  <varray name="positions" >
   <v>       0.99977883       0.99999953       0.99959862 </v>
   <v>       0.24999953       0.24959862       0.25027481 </v>
   <v>       0.49959862       0.50027481       0.00064978 </v>
   <v>       0.75027481       0.75064978       0.25021470 </v>
   <v>       0.50064978       0.00021470       0.50002626 </v>
   <v>       0.75021470       0.25002626       0.75061305 </v>
   <v>       0.00002626       0.50061305       0.49998069 </v>
   <v>       0.25061305       0.74998069       0.75021937 </v>
  </varray>
 </structure>
</modeling>
