NAPTHA04                                
           1
     5.470000    0.000000    0.000000
     0.000000    5.470000    0.000000
     0.000000    0.000000    5.470000
   Si
   8
Direct configuration=     1
   0.99977883  0.99999953  0.99959862
   0.24999953  0.24959862  0.25027481
   0.49959862  0.50027481  0.00064978
   0.75027481  0.75064978  0.25021470
   0.50064978  0.00021470  0.50002626
   0.75021470  0.25002626  0.75061305
   0.00002626  0.50061305  0.49998069
   0.25061305  0.74998069  0.75021937
